
                                 *****************
                                 * O   R   C   A *
                                 *****************

                                            #,                                       
                                            ###                                      
                                            ####                                     
                                            #####                                    
                                            ######                                   
                                           ########,                                 
                                     ,,################,,,,,                         
                               ,,#################################,,                 
                          ,,##########################################,,             
                       ,#########################################, ''#####,          
                    ,#############################################,,   '####,        
                  ,##################################################,,,,####,       
                ,###########''''           ''''###############################       
              ,#####''   ,,,,##########,,,,          '''####'''          '####       
            ,##' ,,,,###########################,,,                        '##       
           ' ,,###''''                  '''############,,,                           
         ,,##''                                '''############,,,,        ,,,,,,###''
      ,#''                                            '''#######################'''  
     '                                                          ''''####''''         
             ,#######,   #######,   ,#######,      ##                                
            ,#'     '#,  ##    ##  ,#'     '#,    #''#        ,####,   ,####,        
            ##       ##  ##   ,#'  ##            #'  '#       #'       #'  '#        
            ##       ##  #######   ##           ,######,      #####,   #    #        
            '#,     ,#'  ##    ##  '#,     ,#' ,#      #,     #,   #   #,  ,#        
             '#######'   ##     ##  '#######'  #'      '#     '####' # '####'        



                #########################################################
                #                        -***-                          #
                #          Department of theory and spectroscopy        #
                #                                                       #
                #                      Frank Neese                      #
                #                                                       #
                #     Directorship, Architecture, Infrastructure        #
                #                    SHARK, DRIVERS                     #
                #        Core code/Algorithms in most modules           #
                #                                                       #
                #        Max Planck Institute fuer Kohlenforschung      #
                #                Kaiser Wilhelm Platz 1                 #
                #                 D-45470 Muelheim/Ruhr                 #
                #                      Germany                          #
                #                                                       #
                #                  All rights reserved                  #
                #                        -***-                          #
                #########################################################


                         Program Version 6.0.1  -  RELEASE   -


 With contributions from (in alphabetic order):
[Max-Planck-Institut fuer Kohlenforschung]                               
  Daniel Aravena         : Magnetic Suceptibility                        
  Michael Atanasov       : Ab Initio Ligand Field Theory (pilot matlab implementation)
  Alexander A. Auer      : GIAO ZORA, VPT2 properties, NMR spectrum      
  Ute Becker             : All parallelization in ORCA, NUMFREQ, NUMCALC 
  Giovanni Bistoni       : ED, misc. LED, open-shell LED, HFLD           
  Martin Brehm           : Molecular dynamics                            
  Dmytro Bykov           : pre 5.0 version of the SCF Hessian            
  Marcos Casanova-Páez   : Triplet and SCS-CIS(D). UHF-(DLPNO)-IP/EA/STEOM-CCSD. UHF-CVS-IP/STEOM-CCSD   
  Vijay G. Chilkuri      : MRCI spin determinant printing, contributions to CSF-ICE 
  Pauline Colinet        : FMM embedding                                 
  Dipayan Datta          : RHF DLPNO-CCSD density                        
  Achintya Kumar Dutta   : EOM-CC, STEOM-CC                              
  Nicolas Foglia         : Exact transition moments, OPA infrastructure, MCD improvements    
  Dmitry Ganyushin       : Spin-Orbit,Spin-Spin,Magnetic field MRCI      
  Miquel Garcia-Rates    : C-PCM and meta-GGA Hessian, CCSD/C-PCM, Gaussian charge scheme 
  Tiago L. C. Gouveia    : GS-ROHF, GS-ROCIS                             
  Yang Guo               : DLPNO-NEVPT2, F12-NEVPT2, CIM, IAO-localization        
  Andreas Hansen         : Spin unrestricted coupled pair/coupled cluster methods 
  Ingolf Harden          : AUTO-CI MPn and infrastructure                
  Benjamin Helmich-Paris : MC-RPA, TRAH-(SCF,CASSCF), AVAS, COSX integrals, SCF dyn. polar. 
  Lee Huntington         : MR-EOM, pCC                                   
  Robert Izsak           : Overlap fitted RIJCOSX, COSX-SCS-MP3, EOM     
  Riya Kayal             : Wick's Theorem for AUTO-CI, AUTO-CI UHF-CCSDT 
  Emily Kempfer          : AUTO-CI, RHF CISDT and CCSDT                  
  Christian Kollmar      : KDIIS, OOCD, Brueckner-CCSD(T), CCSD density, CASPT2, CASPT2-K, improved NEVPT2 
  Axel Koslowski         : Symmetry handling                             
  Simone Kossmann        : meta-GGA functionals, TD-DFT gradient, OOMP2, (MP2 Hessian; deprecated post 5.0) 
  Lucas Lang             : DCDCAS                                        
  Marvin Lechner         : AUTO-CI (C++ implementation), FIC-MRCC        
  Spencer Leger          : CASSCF response                               
  Dagmar Lenk            : GEPOL surface, SMD, ORCA-2-JSON               
  Dimitrios Liakos       : Extrapolation schemes; Compound Job, initial MDCI parallelization 
  Dimitrios Manganas     : Further ROCIS development; embedding schemes. LFT, Crystal Embedding 
  Dimitrios Pantazis     : SARC Basis sets                               
  Anastasios Papadopoulos: AUTO-CI, single reference methods and gradients 
  Taras Petrenko         : pre 6.0 DFT Hessian and TD-DFT gradient, (ASA, deprecated), ECA, 1-Electron XAS/XES, NRVS 
  Peter Pinski           : DLPNO-MP2, DLPNO-MP2 Gradient                 
  Christoph Reimann      : Effective Core Potentials                     
  Marius Retegan         : Local ZFS, SOC                                
  Christoph Riplinger    : Optimizer, TS searches, QM/MM, DLPNO-CCSD(T), (RO)-DLPNO pert. Triples 
  Michael Roemelt        : Original ROCIS implementation                 
  Masaaki Saitow         : Open-shell DLPNO-CCSD energy and density      
  Barbara Sandhoefer     : DKH picture change effects                    
  Kantharuban Sivalingam : CASSCF convergence/infrastructure, NEVPT2 and variants, FIC-MRCI 
  Bernardo de Souza      : ESD, SOC TD-DFT                               
  Georgi L. Stoychev     : AutoAux, RI-MP2 NMR, DLPNO-MP2 response, X2C  
  Van Anh Tran           : RI-MP2 g-tensors                              
  Willem Van den Heuvel  : Paramagnetic NMR                              
  Zikuan Wang            : NOTCH, Electric field optimization            
  Frank Wennmohs         : Technical directorship and infrastructure     
  Hang Xu                : AUTO-CI-Response properties                   
                                                                         
[FACCTs GmbH]                                                            
  Markus Bursch, Miquel Garcia-Rates, Christoph Riplinger, Bernardo de Souza, Georgi L. Stoychev 
                                                                 
  APM, Basis sets (HGBS, AHGBS, def-TZVP (Ac-Lr), def2-XVPD (La-Lu)), CI-OPT, improved COSX, DLPNO-Multilevel,           
  DOCKER, DRACO, updates on ESD, GOAT, IRC, LR-CPCM, MBIS, meta-GGA TD-DFT gradient, ML-optimized integration grids, 
  MM, NACMEs, nearIR, NEB, NEB-TS, NL-DFT gradient (VV10), 2- and 3-layer-ONIOM, interface openCOSMO-RS, QMMM,   
  Crystal-QMMM, SF, symmetry and pop. for TD-DFT, r2SCAN hybrids, SOLVATOR                                   
                                                                         
[Other institutions]                                                     
  V. Asgeirsson          : NEB                                           
  Christoph Bannwarth    : sTDA-DFT, sTD-DFT, PBEh-3c, B97-3c, D3        
  Sebastian Ehlert       : rSCAN, r2SCAN, r2SCAN-3c, D4, dhf basis sets  
  Marvin Friede          : D4 for Fr, Ra, Ac-Lr                          
  Lars Goerigk           : TD-DFT with DH, B97 family of functionals     
  Stefan Grimme          : VdW corrections, initial TS optimization, DFT functionals, gCP, sTDA/sTD-DF 
  Waldemar Hujo          : DFT-NL                                        
  H. Jonsson             : NEB                                           
  Holger Kruse           : gCP                                           
  Marcel Mueller         : wB97X-3c, vDZP basis set                      
  Hagen Neugebauer       : wr2SCAN                                       
  Tobias Risthaus        : range-separated hybrid DFT                    
  Lukas Wittmann         : regularized MP2, r2SCAN double-hybrids, wr2SCAN        
                                                                         
We gratefully acknowledge several colleagues who have allowed us to      
interface, adapt or use parts of their codes:                            
  Ed Valeev, F. Pavosevic, A. Kumar             : LibInt (2-el integral package), F12 methods 
  Garnet Chan, S. Sharma, J. Yang, R. Olivares  : DMRG                   
  Ulf Ekstrom                                   : XCFun DFT Library      
  Mihaly Kallay                                 : mrcc  (arbitrary order and MRCC methods)
  Frank Weinhold                                : gennbo (NPA and NBO analysis)           
  Simon Mueller                                 : openCOSMO-RS                            
  Christopher J. Cramer and Donald G. Truhlar   : smd solvation model                     
  S Lehtola, MJT Oliveira, MAL Marques          : LibXC Library                           
  Liviu Ungur et al                             : ANISO software                          


 Your calculation uses the libint2 library for the computation of 2-el integrals
 For citations please refer to: http://libint.valeyev.net

 Your ORCA version has been built with support for libXC version: 6.2.2
 For citations please refer to: https://libxc.gitlab.io

 This ORCA versions uses:
   CBLAS   interface :  Fast vector & matrix operations
   LAPACKE interface :  Fast linear algebra routines
   SCALAPACK package :  Parallel linear algebra routines
   Shared memory     :  Shared parallel matrices
   BLAS/LAPACK       :  OpenBLAS 0.3.27  USE64BITINT DYNAMIC_ARCH NO_AFFINITY SkylakeX SINGLE_THREADED
        Core in use  :  SkylakeX
   Copyright (c) 2011-2014, The OpenBLAS Project


NOTE: MaxCore=4000 MB was set to SCF,MP2,MDCI,CIPSI,MRCI and CIS
      => If you want to overwrite this, your respective input block should be placed after the MaxCore statement
================================================================================

----- Orbital basis set information -----
Your calculation utilizes the basis: cc-pVTZ 
       H, B-Ne : Obtained from the ccRepo (grant-hill.group.shef.ac.uk/ccrepo) Feb. 2017
                 T. H. Dunning, Jr., J. Chem. Phys. 90, 1007 (1989)
            He : Obtained from the ccRepo (grant-hill.group.shef.ac.uk/ccrepo) Feb. 2017
                 D. E. Woon, T. H. Dunning, Jr., J. Chem. Phys. 100, 2975 (1994)
  Li-Be, Na-Mg : Obtained from the ccRepo (grant-hill.group.shef.ac.uk/ccrepo) Feb. 2017
                 B. P. Prascher, D. E. Woon, K. A. Peterson, T. H. Dunning, Jr., A. K. Wilson, Theor. Chem. Acc. 128, 69 (2011)
         Al-Ar : Obtained from the ccRepo (grant-hill.group.shef.ac.uk/ccrepo) Feb. 2017
                 D. E. Woon, T. H. Dunning, Jr., J. Chem. Phys. 98, 1358 (1993)
            Ca : Obtained from the Peterson Research Group Website (tyr0.chem.wsu.edu/~kipeters) Feb. 2017
                 J. Koput, K. A. Peterson, J. Phys. Chem. 106, 9595 (2002)
         Sc-Zn : Obtained from the ccRepo (grant-hill.group.shef.ac.uk/ccrepo) Feb. 2017
                 N. B. Balabanov, K. A. Peterson, J. Chem. Phys. 123, 064107 (2005)
                 N. B. Balabanov, K. A. Peterson, J. Chem. Phys. 125, 074110 (2006)
         Ga-Kr : Obtained from the ccRepo (grant-hill.group.shef.ac.uk/ccrepo) Feb. 2017
                 A. K. Wilson, D. E. Woon, K. A. Peterson, T. H. Dunning, Jr., J. Chem. Phys. 110, 7667 (1999)
             Y : Obtained from the ccRepo (grant-hill.group.shef.ac.uk/ccrepo) Feb. 2017
                 K. A. Peterson, D. Figgen, M. Dolg, H. Stoll, J. Chem. Phys. 126, 124101 (2007)
        Ag, Au : Obtained from the Peterson Research Group Website (tyr0.chem.wsu.edu/~kipeters) Feb. 2017
                 K. A. Peterson, C. Puzzarini, Theor. Chem. Acc. 114, 283 (2005)

----- AuxC basis set information -----
Your calculation utilizes the auxiliary basis: cc-pVTZ/C 
  Obtained from the EMSL Basis Set Exchange (bse.pnl.gov) Feb. 2017
  H-He, B-F, Al-Ar, Ga-Kr : F. Weigend, A. Kohn, C. Hattig, J. Chem. Phys. 116, 3175 (2002)
             Li-Be, Na-Mg : C. Haettig, Phys. Chem. Chem. Phys. 7, 59 (2005)
                       Ne : C. Haettig, Phys. Chem. Chem. Phys. 7, 59 (2005)
                            F. Weigend, A. Kohn, C. Hattig, J. Chem. Phys. 116, 3175 (2002)
                    Sc-Zn : J. G. Hill, J. A. Platts, J. Chem. Phys. 128, 044104 (2008)

================================================================================
                                        WARNINGS
                       Please study these warnings very carefully!
================================================================================


WARNING: TCut can not be >=Thresh
  ===> : TCut is set to 0.01*Thresh
WARNING: EOM-CCSD Core IP's are only available for rootwise solver 
  ===> : switching DoRootwise true D


WARNING: Post HF methods need fully converged wavefunctions
  ===> : Setting SCFConvForced true
         You can overwrite this default with %scf ConvForced false 


WARNING: MDCI localization with Augmented Hessian Foster-Boys
  ===> : Switching off randomization!

WARNING:  Root wise solver and FollowCIS=false.
For root wise solver, CIS roots needs to be followed!
  ===> : Setting FollowCIS true

WARNING:Core valence separation is required for core excitation in EOM !
  ===> : Setting CVSEP=true and DoCISNAT=false

WARNING: Core valence separation in STEOM the no of active IP root should be 1 !
  ===> : Setting  NActIP=1 

================================================================================
                                       INPUT FILE
================================================================================
NAME = bt-eom.inp
|  1> ! bt-PNO-IP-EOM-CCSD cc-pVTZ cc-pVTZ/C ExtremeSCF TightPNO NoFrozenCore
|  2> 
|  3> %pal nprocs 16 end
|  4> 
|  5> %maxcore 4000
|  6> 
|  7> %output Print[P_ReducedOrbPopMO_L] 1 end
|  8> 
|  9> %mdci
| 10>  NRoots 4
| 11>  DTol 1e-7
| 12>  CVSOrb 5,8
| 13>  CVSEP true
| 14>  DoCVS true
| 15>  DoCore true
| 16>  corehole 5
| 17>  maxiter 500
| 18> end
| 19> 
| 20> * xyz 0 1
| 21>   C           2.70260032347217      0.68952349030149     -0.14592768236111
| 22>   H           3.67034545399967      1.19191221987046     -0.17598134898952
| 23>   H           2.68629433984177      0.02628304888467      0.71916788744625
| 24>   H           2.59906084239523      0.08769509815457     -1.04890893397194
| 25>   C           1.60641458154360      1.71931034005214     -0.05483968143416
| 26>   H           1.68120661791805      2.32597118764165      0.84883910424036
| 27>   H           1.59754826590271      2.39150763260952     -0.91441240484647
| 28>   O           0.34704684121517      1.01398918090280     -0.02234077891340
| 29>   C          -0.73408351572760      1.76016104784664      0.08686332068527
| 30>   O          -0.78645427363488      2.94977308234048      0.16447181700541
| 31>   C          -1.99380771774607      0.85848814585631      0.08984947806136
| 32>   F          -1.90661377868314     -0.07616663944954      1.03866910357774
| 33>   F          -3.08071513781628      1.58035248776727      0.30936367839100
| 34>   F          -2.12310784268042      0.24463067722154     -1.08987155889080
| 35> *
| 36> 
| 37>                          ****END OF INPUT****
================================================================================

                       ****************************
                       * Single Point Calculation *
                       ****************************

---------------------------------
CARTESIAN COORDINATES (ANGSTROEM)
---------------------------------
  C      2.702600    0.689523   -0.145928
  H      3.670345    1.191912   -0.175981
  H      2.686294    0.026283    0.719168
  H      2.599061    0.087695   -1.048909
  C      1.606415    1.719310   -0.054840
  H      1.681207    2.325971    0.848839
  H      1.597548    2.391508   -0.914412
  O      0.347047    1.013989   -0.022341
  C     -0.734084    1.760161    0.086863
  O     -0.786454    2.949773    0.164472
  C     -1.993808    0.858488    0.089849
  F     -1.906614   -0.076167    1.038669
  F     -3.080715    1.580352    0.309364
  F     -2.123108    0.244631   -1.089872

----------------------------
CARTESIAN COORDINATES (A.U.)
----------------------------
  NO LB      ZA    FRAG     MASS         X           Y           Z
   0 C     6.0000    0    12.011    5.107174    1.303011   -0.275763
   1 H     1.0000    0     1.008    6.935948    2.252388   -0.332557
   2 H     1.0000    0     1.008    5.076361    0.049668    1.359030
   3 H     1.0000    0     1.008    4.911513    0.165720   -1.982151
   4 C     6.0000    0    12.011    3.035684    3.249026   -0.103632
   5 H     1.0000    0     1.008    3.177020    4.395449    1.604073
   6 H     1.0000    0     1.008    3.018929    4.519294   -1.727989
   7 O     8.0000    0    15.999    0.655823    1.916162   -0.042218
   8 C     6.0000    0    12.011   -1.387217    3.326222    0.164148
   9 O     8.0000    0    15.999   -1.486183    5.574263    0.310807
  10 C     6.0000    0    12.011   -3.767751    1.622307    0.169791
  11 F     9.0000    0    18.998   -3.602978   -0.143934    1.962800
  12 F     9.0000    0    18.998   -5.821708    2.986433    0.584613
  13 F     9.0000    0    18.998   -4.012092    0.462285   -2.059559

--------------------------------
INTERNAL COORDINATES (ANGSTROEM)
--------------------------------
 C      0   0   0     0.000000000000     0.00000000     0.00000000
 H      1   0   0     1.090792508287     0.00000000     0.00000000
 H      1   2   0     1.090203702586   108.38062614     0.00000000
 H      1   2   3     1.090088518652   108.40446712   242.22709268
 C      1   2   3     1.506778404623   109.41028889   121.05509859
 H      5   1   2     1.090993391539   112.34812579   298.81683955
 H      5   1   2     1.091234657857   112.28952852    60.91241413
 O      5   1   2     1.443794037108   107.58153879   179.80170607
 C      8   5   1     1.318158123706   116.15127605   178.56612450
 O      9   8   5     1.193290646740   127.27998865   359.82346144
 C      9   8   5     1.549170101852   109.73229289   179.30608416
 F     11   9   8     1.334706346905   110.84434478    54.46812213
 F     11   9   8     1.323118419520   110.53405632   174.84707178
 F     11   9   8     1.336144168544   110.14457596   294.76072368

---------------------------
INTERNAL COORDINATES (A.U.)
---------------------------
 C      0   0   0     0.000000000000     0.00000000     0.00000000
 H      1   0   0     2.061299109596     0.00000000     0.00000000
 H      1   2   0     2.060186428075   108.38062614     0.00000000
 H      1   2   3     2.059968761984   108.40446712   242.22709268
 C      1   2   3     2.847398529245   109.41028889   121.05509859
 H      5   1   2     2.061678723926   112.34812579   298.81683955
 H      5   1   2     2.062134651194   112.28952852    60.91241413
 O      5   1   2     2.728375323923   107.58153879   179.80170607
 C      8   5   1     2.490957855007   116.15127605   178.56612450
 O      9   8   5     2.254992520509   127.27998865   359.82346144
 C      9   8   5     2.927507227358   109.73229289   179.30608416
 F     11   9   8     2.522229464858   110.84434478    54.46812213
 F     11   9   8     2.500331455639   110.53405632   174.84707178
 F     11   9   8     2.524946553984   110.14457596   294.76072368

---------------------
BASIS SET INFORMATION
---------------------
There are 4 groups of distinct atoms

 Group   1 Type C   : 18s5p2d1f contracted to 4s3p2d1f pattern {8811/311/11/1}
 Group   2 Type H   : 5s2p1d contracted to 3s2p1d pattern {311/11/1}
 Group   3 Type O   : 18s5p2d1f contracted to 4s3p2d1f pattern {8811/311/11/1}
 Group   4 Type F   : 18s5p2d1f contracted to 4s3p2d1f pattern {8811/311/11/1}

Atom   0C    basis set group =>   1
Atom   1H    basis set group =>   2
Atom   2H    basis set group =>   2
Atom   3H    basis set group =>   2
Atom   4C    basis set group =>   1
Atom   5H    basis set group =>   2
Atom   6H    basis set group =>   2
Atom   7O    basis set group =>   3
Atom   8C    basis set group =>   1
Atom   9O    basis set group =>   3
Atom  10C    basis set group =>   1
Atom  11F    basis set group =>   4
Atom  12F    basis set group =>   4
Atom  13F    basis set group =>   4
---------------------------------
AUXILIARY/C BASIS SET INFORMATION
---------------------------------
There are 4 groups of distinct atoms

 Group   1 Type C   : 8s6p5d3f1g contracted to 8s6p5d3f1g pattern {11111111/111111/11111/111/1}
 Group   2 Type H   : 4s3p2d1f contracted to 4s3p2d1f pattern {1111/111/11/1}
 Group   3 Type O   : 8s6p5d3f1g contracted to 8s6p5d3f1g pattern {11111111/111111/11111/111/1}
 Group   4 Type F   : 8s6p5d3f1g contracted to 8s6p5d3f1g pattern {11111111/111111/11111/111/1}

Atom   0C    basis set group =>   1
Atom   1H    basis set group =>   2
Atom   2H    basis set group =>   2
Atom   3H    basis set group =>   2
Atom   4C    basis set group =>   1
Atom   5H    basis set group =>   2
Atom   6H    basis set group =>   2
Atom   7O    basis set group =>   3
Atom   8C    basis set group =>   1
Atom   9O    basis set group =>   3
Atom  10C    basis set group =>   1
Atom  11F    basis set group =>   4
Atom  12F    basis set group =>   4
Atom  13F    basis set group =>   4


           ************************************************************
           *        Program running with 16 parallel MPI-processes    *
           *              working on a common directory               *
           ************************************************************
------------------------------------------------------------------------------
                             ORCA STARTUP CALCULATIONS
------------------------------------------------------------------------------
------------------------------------------------------------------------------
                   ___                                                        
                  /   \      - P O W E R E D   B Y -                         
                 /     \                                                     
                 |  |  |   _    _      __       _____    __    __             
                 |  |  |  | |  | |    /  \     |  _  \  |  |  /  |          
                  \  \/   | |  | |   /    \    | | | |  |  | /  /          
                 / \  \   | |__| |  /  /\  \   | |_| |  |  |/  /          
                |  |  |   |  __  | /  /__\  \  |    /   |      \           
                |  |  |   | |  | | |   __   |  |    \   |  |\   \          
                \     /   | |  | | |  |  |  |  | |\  \  |  | \   \       
                 \___/    |_|  |_| |__|  |__|  |_| \__\ |__|  \__/        
                                                                              
                      - O R C A' S   B I G   F R I E N D -                    
                                      &                                       
                       - I N T E G R A L  F E E D E R -                       
                                                                              
 v1 FN, 2020, v2 2021, v3 2022-2024                                           
------------------------------------------------------------------------------


----------------------
SHARK INTEGRAL PACKAGE
----------------------

Number of atoms                             ...     14
Number of basis functions                   ...    394
Number of shells                            ...    174
Maximum angular momentum                    ...      3
Integral batch strategy                     ... SHARK/LIBINT Hybrid
RI-J (if used) integral strategy            ... SPLIT-RIJ (Revised 2003 algorithm where possible)
Printlevel                                  ...      1
Contraction scheme used                     ... PARTIAL GENERAL contraction
Prescreening option                         ... SCHWARTZ
   Thresh                                   ... 3.000e-16
   Tcut                                     ... 3.000e-18
   Tpresel                                  ... 3.000e-18 
Coulomb Range Separation                    ... NOT USED
Exchange Range Separation                   ... NOT USED
Multipole approximations                    ... NOT USED
Finite Nucleus Model                        ... NOT USED
CABS basis                                  ... NOT available
Auxiliary Coulomb fitting basis             ... NOT available
Auxiliary J/K fitting basis                 ... NOT available
Auxiliary Correlation fitting basis         ... AVAILABLE
   # of basis functions in Aux-C            ...    879
   # of shells in Aux-C                     ...    257
   Maximum angular momentum in Aux-C        ...      4
Auxiliary 'external' fitting basis          ... NOT available

Checking pre-screening integrals            ... done (  0.0 sec) Dimension = 174
Save PGC pre-screening integrals            ... done (  0.0 sec) Dimension = 174
Calculate PGC overlap integrals             ... done (  0.0 sec) Dimension = 120
Calculating pre-screening integrals (ORCA)  ... done (  0.1 sec) Dimension = 120
Check shell pair data                       ... done (  0.0 sec)
Shell pair information
Shell pair cut-off parameter TPreSel        ...   3.0e-18
Total number of shell pairs                 ...     15225
Shell pairs after pre-screening             ...     11335
Total number of primitive shell pairs       ...     20545
Primitive shell pairs kept                  ...     14081
          la=0 lb=0:   3335 shell pairs
          la=1 lb=0:   3212 shell pairs
          la=1 lb=1:    654 shell pairs
          la=2 lb=0:   1830 shell pairs
          la=2 lb=1:    775 shell pairs
          la=2 lb=2:    242 shell pairs
          la=3 lb=0:    754 shell pairs
          la=3 lb=1:    305 shell pairs
          la=3 lb=2:    184 shell pairs
          la=3 lb=3:     44 shell pairs

Calculating one electron integrals          ... done (  0.0 sec)
Calculating RI/C V-Matrix + Cholesky decomp.... done (  0.0 sec)
Calculating Nuclear repulsion               ... done (  0.0 sec) ENN=    501.755175243768 Eh

Diagonalization of the overlap matrix:
Smallest eigenvalue                        ... 6.991e-04
Time for diagonalization                   ...    0.015 sec
Threshold for overlap eigenvalues          ... 1.000e-07
Number of eigenvalues below threshold      ... 0
Time for construction of square roots      ...    0.007 sec
Total time needed                          ...    0.024 sec

-------------------
DFT GRID GENERATION
-------------------

General Integration Accuracy     IntAcc      ... 4.388
Radial Grid Type                 RadialGrid  ... OptM3 with GC (2021)
Angular Grid (max. ang.)         AngularGrid ... 4 (Lebedev-302)
Angular grid pruning method      GridPruning ... 4 (adaptive)
Weight generation scheme         WeightScheme... mBecke (2022)
Basis function cutoff            BFCut       ... 3.0000e-16
Integration weight cutoff        WCut        ... 1.0000e-14
Partially contracted basis set               ... off
Rotationally invariant grid construction     ... off
Angular grids for H and He will be reduced by one unit

Total number of grid points                  ...    70815
Total number of batches                      ...     1114
Average number of points per batch           ...       63
Average number of grid points per atom       ...     5058

---------------------
SHARK GRID GENERATION
---------------------

General Integration Accuracy     IntAcc      ... 4.388
Radial Grid Type                 RadialGrid  ... OptM3 with GC (2021)
Angular Grid (max. ang.)         AngularGrid ... 4 (Lebedev-302)
Angular grid pruning method      GridPruning ... 4 (adaptive)
Weight generation scheme         WeightScheme... mBecke (2022)
Basis function cutoff            BFCut       ... 3.0000e-16
Integration weight cutoff        WCut        ... 1.0000e-14
Partially contracted basis set               ... off
Rotationally invariant grid construction     ... off
Angular grids for H and He will be reduced by one unit
Steep s-basis detected: some atoms will have their radial
                        grid points doubled.

Total number of grid points                  ...   126197
Total number of batches                      ...     1980
Average number of points per batch           ...       63
Average number of grid points per atom       ...     9014
Initializing property integral containers    ... done (  0.0 sec)

SHARK setup successfully completed in   1.8 seconds

Maximum memory used throughout the entire STARTUP-calculation: 40.5 MB


           ************************************************************
           *        Program running with 16 parallel MPI-processes    *
           *              working on a common directory               *
           ************************************************************
-------------------------------------------------------------------------------
                                 ORCA GUESS
                   Start orbitals & Density for SCF / CASSCF
-------------------------------------------------------------------------------

------------
SCF SETTINGS
------------
Hamiltonian:
 Ab initio Hamiltonian  Method          .... Hartree-Fock(GTOs)


General Settings:
 Integral files         IntName         .... bt-eom
 Hartree-Fock type      HFTyp           .... RHF
 Total Charge           Charge          ....    0
 Multiplicity           Mult            ....    1
 Number of Electrons    NEL             ....   72
 Basis Dimension        Dim             ....  340
 Nuclear Repulsion      ENuc            ....    501.7551752438 Eh

Convergence Acceleration:
 AO-DIIS                CNVDIIS         .... on
   Start iteration      DIISMaxIt       ....    12
   Startup error        DIISStart       ....  0.200000
   # of expansion vecs  DIISMaxEq       ....     5
   Bias factor          DIISBfac        ....   1.050
   Max. coefficient     DIISMaxC        ....  10.000
 MO-DIIS                CNVKDIIS        .... off
 Trust-Rad. Augm. Hess. CNVTRAH         .... auto
   Auto Start mean grad. ratio tolernc. ....  1.125000
   Auto Start start iteration           ....    50
   Auto Start num. interpolation iter.  ....    10
   Max. Number of Micro iterations      ....    24
   Max. Number of Macro iterations      .... Maxiter - #DIIS iter
   Number of Davidson start vectors     ....     2
   Converg. threshold    (grad. norm)   ....   1.000e-09
   Grad. Scal. Fac. for Micro threshold ....   0.100
   Minimum threshold for Micro iter.    ....   1.000e-02
   NR start threshold (gradient norm)   ....   1.000e-04
   Initial trust radius                 ....   0.400
   Minimum AH scaling param. (alpha)    ....   1.000
   Maximum AH scaling param. (alpha)    .... 1000.000
   Quad. conv. algorithm                .... NR
   White noise on init. David. guess    .... on
   Maximum white noise                  ....   0.010
   Pseudo random numbers                .... off
   Inactive MOs                         .... canonical
   Orbital update algorithm             .... Taylor
   Preconditioner                       .... Diag
   Full preconditioner red. dimension   ....   250
 SOSCF                  CNVSOSCF        .... on
   Start iteration      SOSCFMaxIt      ....   150
   Startup grad/error   SOSCFStart      ....  0.003300
   Hessian update       SOSCFHessUp     .... L-BFGS
 Level Shifting         CNVShift        .... on
   Level shift para.    LevelShift      ....    0.2500
   Turn off err/grad.   ShiftErr        ....    0.0010
 Zerner damping         CNVZerner       .... off
 Static damping         CNVDamp         .... on
   Fraction old density DampFac         ....    0.7000
   Max. Damping (<1)    DampMax         ....    0.9800
   Min. Damping (>=0)   DampMin         ....    0.0000
   Turn off err/grad.   DampErr         ....    0.1000

SCF Procedure:
 Maximum # iterations   MaxIter         ....   125
 SCF integral mode      SCFMode         .... Direct
   Integral package                     .... SHARK and LIBINT hybrid scheme
 Reset frequency        DirectResetFreq ....    20
 Integral Threshold     Thresh          ....  3.000e-16 Eh
 Primitive CutOff       TCut            ....  3.000e-18 Eh

Convergence Tolerance:
 Convergence Check Mode ConvCheckMode   .... All-Criteria
 Convergence forced     ConvForced      .... 1
 Energy Change          TolE            ....  1.000e-14 Eh
 Max Density Change     TolMaxP         ....  1.000e-14
 RMS Density Change     TolRMSP         ....  1.000e-14
 Orbital Gradient       TolG            ....  1.000e-09
 Orbital Rotation angle TolX            ....  1.000e-09
 DIIS Error             TolErr          ....  1.000e-14

------------------------------
INITIAL GUESS: MODEL POTENTIAL
------------------------------
Loading Hartree-Fock densities                     ... done
Calculating cut-offs                               ... done
Initializing the effective Hamiltonian             ... done
Setting up the integral package (SHARK)            ... done
Starting the Coulomb interaction                   ... done (   0.0 sec)
Making the grid                                    ... done (   0.1 sec)
Mapping shells                                     ... done
Starting the XC term evaluation                    ... done (   0.0 sec)
Transforming the Hamiltonian                       ... done (   0.0 sec)
Diagonalizing the Hamiltonian                      ... done (   0.0 sec)
Back transforming the eigenvectors                 ... done (   0.0 sec)
Now organizing SCF variables                       ... done
                      ------------------
                      INITIAL GUESS DONE (   0.2 sec)
                      ------------------
             **** ENERGY FILE WAS UPDATED (bt-eom.en.tmp) ****
Finished Guess after   0.5 sec
Maximum memory used throughout the entire GUESS-calculation: 21.6 MB


           ************************************************************
           *        Program running with 16 parallel MPI-processes    *
           *              working on a common directory               *
           ************************************************************

-------------------------------------------------------------------------------------------
                                      ORCA LEAN-SCF
                              memory conserving SCF solver
-------------------------------------------------------------------------------------------

----------------------------------------D-I-I-S--------------------------------------------
Iteration    Energy (Eh)           Delta-E    RMSDP     MaxDP     DIISErr   Damp  Time(sec)
-------------------------------------------------------------------------------------------
               ***  Starting incremental Fock matrix formation  ***
    1    -602.3331702229894518     0.00e+00  7.99e-04  2.95e-02  3.36e-01  0.700   3.7
    2    -602.4500535205614824    -1.17e-01  5.98e-04  2.10e-02  2.00e-01  0.700   3.5
                               ***Turning on AO-DIIS***
    3    -602.5194855193061585    -6.94e-02  3.68e-04  1.56e-02  1.17e-01  0.700   3.4
    4    -602.5646855356438891    -4.52e-02  2.71e-04  1.12e-02  8.27e-02  0.700   3.5
    5    -602.5960856377088248    -3.14e-02  6.86e-04  2.64e-02  6.16e-02  0.000   3.4
    6    -602.6707937316776906    -7.47e-02  7.59e-05  2.36e-03  6.45e-03  0.000   3.5
                              *** Initializing SOSCF ***
---------------------------------------S-O-S-C-F--------------------------------------
Iteration    Energy (Eh)           Delta-E    RMSDP     MaxDP     MaxGrad    Time(sec)
--------------------------------------------------------------------------------------
    7    -602.6710353898482708    -2.42e-04  3.90e-05  1.25e-03  2.48e-03     3.3
               *** Restarting incremental Fock matrix formation ***
    8    -602.6710955617242007    -6.02e-05  2.31e-05  1.02e-03  1.21e-03     3.6
    9    -602.6711130341317357    -1.75e-05  2.65e-05  9.79e-04  4.65e-04     3.1
   10    -602.6711200977305225    -7.06e-06  5.42e-06  2.12e-04  1.69e-04     3.2
   11    -602.6711206747669394    -5.77e-07  2.04e-06  5.24e-05  3.24e-05     3.0
   12    -602.6711207381277973    -6.34e-08  6.86e-07  2.89e-05  1.67e-05     2.9
   13    -602.6711207519791742    -1.39e-08  1.93e-07  8.05e-06  2.11e-06     2.8
   14    -602.6711207524989504    -5.20e-10  6.29e-08  2.25e-06  1.21e-06     2.7
   15    -602.6711207525573855    -5.84e-11  1.37e-08  6.33e-07  4.28e-07     2.5
   16    -602.6711207525635245    -6.14e-12  4.27e-09  1.60e-07  7.37e-08     2.4
   17    -602.6711207525644340    -9.09e-13  1.37e-09  4.01e-08  2.47e-08     2.2
   18    -602.6711207525628424     1.59e-12  6.45e-10  2.23e-08  1.20e-08     2.1
   19    -602.6711207525637519    -9.09e-13  3.34e-10  7.32e-09  6.83e-09     2.0
   20    -602.6711207525644340    -6.82e-13  2.49e-10  6.90e-09  2.35e-09     1.9
   21    -602.6711207525630698     1.36e-12  2.00e-10  6.05e-09  1.28e-09     1.9
   22    -602.6711207525653435    -2.27e-12  1.26e-10  3.91e-09  1.10e-09     1.9
   23    -602.6711207525648888     4.55e-13  6.10e-11  1.69e-09  1.07e-09     1.8
   24    -602.6711207525646614     2.27e-13  0.00e+00  0.00e+00  9.98e-10     1.7
                           ***RMSP convergence achieved***
                           ***MAXP convergence achieved***
                       ***Gradient convergence achieved***
                    ***Orbital Rotation convergence achieved***
   25    -602.6711207525648888    -2.27e-13  0.00e+00  0.00e+00  9.98e-10     0.1
   26    -602.6711207525648888     0.00e+00  0.00e+00  0.00e+00  9.98e-10     0.1
                          ***Energy convergence achieved***

               *****************************************************
               *                     SUCCESS                       *
               *           SCF CONVERGED AFTER  26 CYCLES          *
               *****************************************************

             **** ENERGY FILE WAS UPDATED (bt-eom.en.tmp) ****

----------------
TOTAL SCF ENERGY
----------------

Total Energy       :       -602.67112075256489 Eh          -16399.51493 eV

Components:
Nuclear Repulsion  :        501.75517524376812 Eh           13653.45245 eV
Electronic Energy  :      -1104.42629599633301 Eh          -30052.96738 eV
One Electron Energy:      -1829.97102763295106 Eh          -49796.04324 eV
Two Electron Energy:        725.54473163661805 Eh           19743.07587 eV

Virial components:
Potential Energy   :      -1204.64196166664942 Eh          -32779.97428 eV
Kinetic Energy     :        601.97084091408453 Eh           16380.45935 eV
Virial Ratio       :          2.00116331189301

---------------
SCF CONVERGENCE
---------------

  Last Energy change         ...    0.0000e+00  Tolerance :   1.0000e-14
  Last MAX-Density change    ...    0.0000e+00  Tolerance :   1.0000e-14
  Last RMS-Density change    ...    0.0000e+00  Tolerance :   1.0000e-14
  Last DIIS Error            ...    2.4845e-03  Tolerance :   1.0000e-14
  Last Orbital Gradient      ...    9.9801e-10  Tolerance :   1.0000e-09
  Last Orbital Rotation      ...    0.0000e+00  Tolerance :   1.0000e-09


----------------
ORBITAL ENERGIES
----------------

  NO   OCC          E(Eh)            E(eV) 
   0   2.0000     -26.352300      -717.0825 
   1   2.0000     -26.352102      -717.0772 
   2   2.0000     -26.349978      -717.0194 
   3   2.0000     -20.634517      -561.4938 
   4   2.0000     -20.582717      -560.0842 
   5   2.0000     -11.526006      -313.6386 
   6   2.0000     -11.418169      -310.7042 
   7   2.0000     -11.312231      -307.8214 
   8   2.0000     -11.240003      -305.8560 
   9   2.0000      -1.747761       -47.5590 
  10   2.0000      -1.650577       -44.9145 
  11   2.0000      -1.650044       -44.9000 
  12   2.0000      -1.502425       -40.8831 
  13   2.0000      -1.403424       -38.1891 
  14   2.0000      -1.079677       -29.3795 
  15   2.0000      -1.016813       -27.6689 
  16   2.0000      -0.914474       -24.8841 
  17   2.0000      -0.858831       -23.3700 
  18   2.0000      -0.839990       -22.8573 
  19   2.0000      -0.836705       -22.7679 
  20   2.0000      -0.801175       -21.8011 
  21   2.0000      -0.729632       -19.8543 
  22   2.0000      -0.724871       -19.7247 
  23   2.0000      -0.708765       -19.2865 
  24   2.0000      -0.704720       -19.1764 
  25   2.0000      -0.676487       -18.4081 
  26   2.0000      -0.676226       -18.4010 
  27   2.0000      -0.674899       -18.3649 
  28   2.0000      -0.660268       -17.9668 
  29   2.0000      -0.609815       -16.5939 
  30   2.0000      -0.590020       -16.0553 
  31   2.0000      -0.569232       -15.4896 
  32   2.0000      -0.536903       -14.6099 
  33   2.0000      -0.534559       -14.5461 
  34   2.0000      -0.487712       -13.2713 
  35   2.0000      -0.486755       -13.2453 
  36   0.0000       0.129780         3.5315 
  37   0.0000       0.138962         3.7813 
  38   0.0000       0.174603         4.7512 
  39   0.0000       0.187882         5.1125 
  40   0.0000       0.201167         5.4740 
  41   0.0000       0.228829         6.2267 
  42   0.0000       0.247030         6.7220 
  43   0.0000       0.298660         8.1269 
  44   0.0000       0.309220         8.4143 
  45   0.0000       0.327727         8.9179 
  46   0.0000       0.354467         9.6455 
*Only the first 10 virtual orbitals were printed.

                    ********************************
                    * MULLIKEN POPULATION ANALYSIS *
                    ********************************

-----------------------
MULLIKEN ATOMIC CHARGES
-----------------------
   0 C :   -0.257669
   1 H :    0.094595
   2 H :    0.103375
   3 H :    0.103500
   4 C :    0.042148
   5 H :    0.101692
   6 H :    0.100642
   7 O :   -0.294283
   8 C :    0.286022
   9 O :   -0.347060
  10 C :    0.707303
  11 F :   -0.219346
  12 F :   -0.199504
  13 F :   -0.221416
Sum of atomic charges:    0.0000000

--------------------------------
MULLIKEN REDUCED ORBITAL CHARGES
--------------------------------
  0 C s       :     3.256472  s :     3.256472
      pz      :     1.026318  p :     2.924588
      px      :     0.940575
      py      :     0.957695
      dz2     :     0.012953  d :     0.071997
      dxz     :     0.004942
      dyz     :     0.029474
      dx2y2   :     0.005434
      dxy     :     0.019195
      f0      :     0.000279  f :     0.004611
      f+1     :     0.000439
      f-1     :     0.001557
      f+2     :     0.000080
      f-2     :     0.000492
      f+3     :     0.000593
      f-3     :     0.001171

  1 H s       :     0.875211  s :     0.875211
      pz      :     0.008000  p :     0.027972
      px      :     0.012170
      py      :     0.007802
      dz2     :     0.000227  d :     0.002223
      dxz     :     0.000443
      dyz     :     0.000161
      dx2y2   :     0.000776
      dxy     :     0.000615

  2 H s       :     0.866771  s :     0.866771
      pz      :     0.009259  p :     0.027597
      px      :     0.008127
      py      :     0.010210
      dz2     :     0.000617  d :     0.002258
      dxz     :     0.000385
      dyz     :     0.000633
      dx2y2   :     0.000244
      dxy     :     0.000378

  3 H s       :     0.866617  s :     0.866617
      pz      :     0.009717  p :     0.027625
      px      :     0.007988
      py      :     0.009919
      dz2     :     0.000623  d :     0.002258
      dxz     :     0.000432
      dyz     :     0.000676
      dx2y2   :     0.000215
      dxy     :     0.000312

  4 C s       :     3.178126  s :     3.178126
      pz      :     1.014759  p :     2.618142
      px      :     0.688281
      py      :     0.915102
      dz2     :     0.020390  d :     0.150072
      dxz     :     0.023162
      dyz     :     0.034924
      dx2y2   :     0.037257
      dxy     :     0.034339
      f0      :     0.001301  f :     0.011513
      f+1     :     0.001198
      f-1     :     0.001779
      f+2     :     0.000370
      f-2     :     0.001625
      f+3     :     0.002743
      f-3     :     0.002497

  5 H s       :     0.869529  s :     0.869529
      pz      :     0.009772  p :     0.026449
      px      :     0.004988
      py      :     0.011689
      dz2     :     0.000555  d :     0.002330
      dxz     :     0.000430
      dyz     :     0.000844
      dx2y2   :     0.000223
      dxy     :     0.000277

  6 H s       :     0.870584  s :     0.870584
      pz      :     0.009442  p :     0.026443
      px      :     0.004809
      py      :     0.012192
      dz2     :     0.000575  d :     0.002330
      dxz     :     0.000355
      dyz     :     0.000800
      dx2y2   :     0.000268
      dxy     :     0.000333

  7 O s       :     3.703221  s :     3.703221
      pz      :     1.755410  p :     4.550189
      px      :     1.195482
      py      :     1.599297
      dz2     :     0.004562  d :     0.038422
      dxz     :     0.005204
      dyz     :     0.003763
      dx2y2   :     0.006515
      dxy     :     0.018379
      f0      :     0.000275  f :     0.002451
      f+1     :     0.000515
      f-1     :     0.000202
      f+2     :     0.000092
      f-2     :     0.000244
      f+3     :     0.000434
      f-3     :     0.000690

  8 C s       :     3.100562  s :     3.100562
      pz      :     0.672947  p :     2.277191
      px      :     0.815691
      py      :     0.788554
      dz2     :     0.014185  d :     0.309522
      dxz     :     0.025841
      dyz     :     0.075611
      dx2y2   :     0.054950
      dxy     :     0.138934
      f0      :     0.003408  f :     0.026704
      f+1     :     0.001556
      f-1     :     0.001551
      f+2     :     0.003301
      f-2     :     0.002527
      f+3     :     0.009026
      f-3     :     0.005335

  9 O s       :     3.750246  s :     3.750246
      pz      :     1.393087  p :     4.556569
      px      :     1.808265
      py      :     1.355217
      dz2     :     0.003610  d :     0.037695
      dxz     :     0.000087
      dyz     :     0.013855
      dx2y2   :     0.012662
      dxy     :     0.007482
      f0      :     0.000222  f :     0.002549
      f+1     :     0.000019
      f-1     :     0.000350
      f+2     :     0.000567
      f-2     :     0.000016
      f+3     :     0.000593
      f-3     :     0.000781

 10 C s       :     2.844461  s :     2.844461
      pz      :     0.588122  p :     2.036241
      px      :     0.771632
      py      :     0.676488
      dz2     :     0.081623  d :     0.362912
      dxz     :     0.071442
      dyz     :     0.076257
      dx2y2   :     0.060931
      dxy     :     0.072659
      f0      :     0.009155  f :     0.049082
      f+1     :     0.006123
      f-1     :     0.008171
      f+2     :     0.005704
      f-2     :     0.008882
      f+3     :     0.006513
      f-3     :     0.004535

 11 F s       :     3.894069  s :     3.894069
      pz      :     1.693346  p :     5.308424
      px      :     1.921087
      py      :     1.693991
      dz2     :     0.002500  d :     0.016026
      dxz     :     0.001524
      dyz     :     0.007818
      dx2y2   :     0.002690
      dxy     :     0.001494
      f0      :     0.000079  f :     0.000827
      f+1     :     0.000024
      f-1     :     0.000280
      f+2     :     0.000242
      f-2     :     0.000104
      f+3     :     0.000043
      f-3     :     0.000054

 12 F s       :     3.890979  s :     3.890979
      pz      :     1.901698  p :     5.291100
      px      :     1.603669
      py      :     1.785733
      dz2     :     0.002507  d :     0.016553
      dxz     :     0.002412
      dyz     :     0.000921
      dx2y2   :     0.003847
      dxy     :     0.006866
      f0      :     0.000071  f :     0.000872
      f+1     :     0.000123
      f-1     :     0.000061
      f+2     :     0.000029
      f-2     :     0.000114
      f+3     :     0.000165
      f-3     :     0.000309

 13 F s       :     3.894273  s :     3.894273
      pz      :     1.571411  p :     5.310365
      px      :     1.917165
      py      :     1.821789
      dz2     :     0.005934  d :     0.015956
      dxz     :     0.002365
      dyz     :     0.005936
      dx2y2   :     0.000931
      dxy     :     0.000791
      f0      :     0.000189  f :     0.000821
      f+1     :     0.000085
      f-1     :     0.000351
      f+2     :     0.000098
      f-2     :     0.000079
      f+3     :     0.000011
      f-3     :     0.000009



                     *******************************
                     * LOEWDIN POPULATION ANALYSIS *
                     *******************************

----------------------
LOEWDIN ATOMIC CHARGES
----------------------
   0 C :    0.113019
   1 H :   -0.019950
   2 H :   -0.022674
   3 H :   -0.022725
   4 C :   -0.002456
   5 H :   -0.025039
   6 H :   -0.025005
   7 O :    0.346735
   8 C :   -0.495242
   9 O :    0.168507
  10 C :   -0.687050
  11 F :    0.216434
  12 F :    0.241228
  13 F :    0.214219

-------------------------------
LOEWDIN REDUCED ORBITAL CHARGES
-------------------------------
  0 C s       :     2.660492  s :     2.660492
      pz      :     0.986828  p :     2.890741
      px      :     0.950099
      py      :     0.953814
      dz2     :     0.054665  d :     0.306017
      dxz     :     0.019689
      dyz     :     0.102261
      dx2y2   :     0.049969
      dxy     :     0.079433
      f0      :     0.002329  f :     0.029732
      f+1     :     0.004488
      f-1     :     0.005252
      f+2     :     0.003751
      f-2     :     0.003756
      f+3     :     0.004159
      f-3     :     0.005996

  1 H s       :     0.839680  s :     0.839680
      pz      :     0.040679  p :     0.152177
      px      :     0.065835
      py      :     0.045664
      dz2     :     0.002325  d :     0.028093
      dxz     :     0.007003
      dyz     :     0.002668
      dx2y2   :     0.008290
      dxy     :     0.007806

  2 H s       :     0.842491  s :     0.842491
      pz      :     0.060862  p :     0.152002
      px      :     0.038664
      py      :     0.052476
      dz2     :     0.008600  d :     0.028180
      dxz     :     0.005257
      dyz     :     0.007372
      dx2y2   :     0.002795
      dxy     :     0.004157

  3 H s       :     0.842509  s :     0.842509
      pz      :     0.063009  p :     0.152032
      px      :     0.038835
      py      :     0.050188
      dz2     :     0.008884  d :     0.028185
      dxz     :     0.005712
      dyz     :     0.007638
      dx2y2   :     0.002393
      dxy     :     0.003557

  4 C s       :     2.681297  s :     2.681297
      pz      :     1.014478  p :     2.702688
      px      :     0.756396
      py      :     0.931813
      dz2     :     0.074028  d :     0.544622
      dxz     :     0.074322
      dyz     :     0.137461
      dx2y2   :     0.114697
      dxy     :     0.144114
      f0      :     0.007447  f :     0.073849
      f+1     :     0.008841
      f-1     :     0.006399
      f+2     :     0.006989
      f-2     :     0.010004
      f+3     :     0.017164
      f-3     :     0.017006

  5 H s       :     0.851084  s :     0.851084
      pz      :     0.067643  p :     0.146262
      px      :     0.027542
      py      :     0.051077
      dz2     :     0.009028  d :     0.027693
      dxz     :     0.004537
      dyz     :     0.008575
      dx2y2   :     0.002548
      dxy     :     0.003005

  6 H s       :     0.851344  s :     0.851344
      pz      :     0.064793  p :     0.146011
      px      :     0.027075
      py      :     0.054143
      dz2     :     0.008982  d :     0.027650
      dxz     :     0.003834
      dyz     :     0.008302
      dx2y2   :     0.003025
      dxy     :     0.003508

  7 O s       :     3.208062  s :     3.208062
      pz      :     1.577976  p :     4.335492
      px      :     1.218045
      py      :     1.539471
      dz2     :     0.010706  d :     0.103562
      dxz     :     0.016055
      dyz     :     0.007018
      dx2y2   :     0.029136
      dxy     :     0.040647
      f0      :     0.000523  f :     0.006150
      f+1     :     0.000739
      f-1     :     0.000265
      f+2     :     0.000110
      f-2     :     0.000986
      f+3     :     0.002152
      f-3     :     0.001374

  8 C s       :     2.760387  s :     2.760387
      pz      :     0.670887  p :     2.584233
      px      :     0.900542
      py      :     1.012803
      dz2     :     0.070297  d :     0.986505
      dxz     :     0.082652
      dyz     :     0.191763
      dx2y2   :     0.235207
      dxy     :     0.406585
      f0      :     0.011565  f :     0.164118
      f+1     :     0.008303
      f-1     :     0.012873
      f+2     :     0.021217
      f-2     :     0.015717
      f+3     :     0.066064
      f-3     :     0.028380

  9 O s       :     3.367847  s :     3.367847
      pz      :     1.292638  p :     4.389466
      px      :     1.617975
      py      :     1.478854
      dz2     :     0.008364  d :     0.068543
      dxz     :     0.000196
      dyz     :     0.014495
      dx2y2   :     0.027935
      dxy     :     0.017553
      f0      :     0.000374  f :     0.005637
      f+1     :     0.000108
      f-1     :     0.000801
      f+2     :     0.000759
      f-2     :     0.000074
      f+3     :     0.001818
      f-3     :     0.001703

 10 C s       :     2.754345  s :     2.754345
      pz      :     0.752378  p :     2.462952
      px      :     0.891115
      py      :     0.819458
      dz2     :     0.270633  d :     1.191013
      dxz     :     0.186095
      dyz     :     0.281390
      dx2y2   :     0.186811
      dxy     :     0.266083
      f0      :     0.047990  f :     0.278741
      f+1     :     0.035242
      f-1     :     0.047797
      f+2     :     0.037959
      f-2     :     0.046201
      f+3     :     0.036356
      f-3     :     0.027195

 11 F s       :     3.580194  s :     3.580194
      pz      :     1.674104  p :     5.173113
      px      :     1.826399
      py      :     1.672610
      dz2     :     0.004830  d :     0.028801
      dxz     :     0.002828
      dyz     :     0.013202
      dx2y2   :     0.004516
      dxy     :     0.003425
      f0      :     0.000202  f :     0.001458
      f+1     :     0.000048
      f-1     :     0.000407
      f+2     :     0.000349
      f-2     :     0.000248
      f+3     :     0.000120
      f-3     :     0.000083

 12 F s       :     3.570154  s :     3.570154
      pz      :     1.809668  p :     5.157288
      px      :     1.610425
      py      :     1.737194
      dz2     :     0.004281  d :     0.029798
      dxz     :     0.003623
      dyz     :     0.002170
      dx2y2   :     0.007714
      dxy     :     0.012009
      f0      :     0.000131  f :     0.001532
      f+1     :     0.000199
      f-1     :     0.000099
      f+2     :     0.000046
      f-2     :     0.000232
      f+3     :     0.000404
      f-3     :     0.000421

 13 F s       :     3.581276  s :     3.581276
      pz      :     1.593126  p :     5.174368
      px      :     1.822617
      py      :     1.758624
      dz2     :     0.010349  d :     0.028689
      dxz     :     0.004604
      dyz     :     0.010596
      dx2y2   :     0.001257
      dxy     :     0.001882
      f0      :     0.000376  f :     0.001448
      f+1     :     0.000179
      f-1     :     0.000488
      f+2     :     0.000152
      f-2     :     0.000208
      f+3     :     0.000032
      f-3     :     0.000013


------------------------------------------
LOEWDIN REDUCED ORBITAL POPULATIONS PER MO
-------------------------------------------
THRESHOLD FOR PRINTING IS 0.1%%
                      0         1         2         3         4         5   
                 -26.35230 -26.35210 -26.34998 -20.63452 -20.58272 -11.52601
                   2.00000   2.00000   2.00000   2.00000   2.00000   2.00000
                  --------  --------  --------  --------  --------  --------
 4 C  px              0.0       0.0       0.0       0.1       0.0       0.0
 4 C  dxy             0.0       0.0       0.0       0.2       0.0       0.0
 7 O  s               0.0       0.0       0.0      98.5       0.0       0.0
 8 C  s               0.0       0.0       0.0       0.0       0.1       0.1
 8 C  px              0.0       0.0       0.0       0.2       0.0       0.2
 8 C  py              0.0       0.0       0.0       0.1       0.4       0.1
 8 C  dz2             0.0       0.0       0.0       0.1       0.2       0.1
 8 C  dx2y2           0.0       0.0       0.0       0.0       0.6       0.0
 8 C  dxy             0.0       0.0       0.0       0.3       0.0       0.3
 8 C  f-1             0.0       0.0       0.0       0.0       0.1       0.0
 8 C  f-3             0.0       0.0       0.0       0.1       0.2       0.0
 9 O  s               0.0       0.0       0.0       0.0      98.3       0.0
10 C  s               0.0       0.0       0.0       0.0       0.0      97.7
10 C  pz              0.1       0.1       0.0       0.0       0.0       0.0
10 C  px              0.0       0.0       0.1       0.0       0.0       0.0
10 C  dz2             0.1       0.0       0.1       0.0       0.0       0.0
10 C  dyz             0.2       0.2       0.0       0.0       0.0       0.0
10 C  dxy             0.0       0.0       0.2       0.0       0.0       0.0
11 F  s               0.2      99.1       0.0       0.0       0.0       0.1
11 F  pz              0.0       0.0       0.0       0.0       0.0       0.2
11 F  py              0.0       0.0       0.0       0.0       0.0       0.2
12 F  s               0.0       0.0      99.3       0.0       0.0       0.1
12 F  px              0.0       0.0       0.0       0.0       0.0       0.2
12 F  py              0.0       0.0       0.0       0.0       0.0       0.1
13 F  s              99.1       0.2       0.0       0.0       0.0       0.1
13 F  pz              0.0       0.0       0.0       0.0       0.0       0.3

                      6         7         8         9        10        11   
                 -11.41817 -11.31223 -11.24000  -1.74776  -1.65058  -1.65004
                   2.00000   2.00000   2.00000   2.00000   2.00000   2.00000
                  --------  --------  --------  --------  --------  --------
 0 C  s               0.0       0.1      95.9       0.0       0.0       0.0
 0 C  px              0.0       0.2       0.0       0.0       0.0       0.0
 0 C  py              0.0       0.1       0.0       0.0       0.0       0.0
 0 C  dz2             0.0       0.1       0.0       0.0       0.0       0.0
 0 C  dxy             0.0       0.3       0.0       0.0       0.0       0.0
 1 H  s               0.0       0.0       0.3       0.0       0.0       0.0
 1 H  px              0.0       0.0       0.5       0.0       0.0       0.0
 1 H  py              0.0       0.0       0.1       0.0       0.0       0.0
 2 H  s               0.0       0.0       0.3       0.0       0.0       0.0
 2 H  pz              0.0       0.0       0.4       0.0       0.0       0.0
 2 H  py              0.0       0.0       0.2       0.0       0.0       0.0
 2 H  dyz             0.0       0.0       0.1       0.0       0.0       0.0
 3 H  s               0.0       0.0       0.3       0.0       0.0       0.0
 3 H  pz              0.0       0.0       0.4       0.0       0.0       0.0
 3 H  py              0.0       0.0       0.2       0.0       0.0       0.0
 3 H  dyz             0.0       0.0       0.1       0.0       0.0       0.0
 4 C  s               0.0      96.4       0.1       0.0       0.0       0.0
 4 C  px              0.0       0.0       0.1       0.0       0.0       0.0
 4 C  py              0.0       0.0       0.1       0.0       0.0       0.0
 4 C  dz2             0.0       0.0       0.1       0.0       0.0       0.0
 4 C  dxy             0.0       0.0       0.3       0.0       0.0       0.0
 5 H  s               0.0       0.3       0.0       0.0       0.0       0.0
 5 H  pz              0.0       0.5       0.0       0.0       0.0       0.0
 5 H  py              0.0       0.2       0.0       0.0       0.0       0.0
 5 H  dyz             0.0       0.1       0.0       0.0       0.0       0.0
 6 H  s               0.0       0.3       0.0       0.0       0.0       0.0
 6 H  pz              0.0       0.4       0.0       0.0       0.0       0.0
 6 H  py              0.0       0.3       0.0       0.0       0.0       0.0
 6 H  dyz             0.0       0.1       0.0       0.0       0.0       0.0
 7 O  px              0.3       0.2       0.0       0.1       0.0       0.0
 7 O  py              0.2       0.1       0.0       0.0       0.0       0.0
 7 O  dxy             0.1       0.0       0.0       0.0       0.0       0.0
 8 C  s              96.9       0.0       0.0       1.0       0.0       0.0
 8 C  pz              0.0       0.0       0.0       0.0       0.0       0.3
 8 C  px              0.0       0.0       0.0       1.6       0.1       0.0
 8 C  py              0.0       0.0       0.0       0.8       0.3       0.0
 8 C  dz2             0.0       0.0       0.0       0.1       0.0       0.0
 8 C  dxz             0.0       0.0       0.0       0.0       0.0       0.1
 8 C  dx2y2           0.0       0.0       0.0       0.0       0.2       0.0
 8 C  dxy             0.0       0.0       0.0       0.2       0.0       0.0
 9 O  s               0.2       0.0       0.0       0.1       0.0       0.0
 9 O  py              0.7       0.0       0.0       0.0       0.0       0.0
 9 O  dz2             0.1       0.0       0.0       0.0       0.0       0.0
 9 O  dx2y2           0.4       0.0       0.0       0.0       0.0       0.0
10 C  s               0.1       0.0       0.0      18.5       0.0       0.0
10 C  pz              0.0       0.0       0.0       0.0       0.2      16.3
10 C  px              0.2       0.0       0.0       2.3       5.6       0.1
10 C  py              0.1       0.0       0.0       1.0      11.0       0.2
10 C  dz2             0.1       0.0       0.0       0.3       3.3       0.7
10 C  dxz             0.0       0.0       0.0       0.0       0.5       0.0
10 C  dyz             0.0       0.0       0.0       0.0       0.4       7.3
10 C  dx2y2           0.0       0.0       0.0       0.1       1.7       0.1
10 C  dxy             0.3       0.0       0.0       0.9       2.4       0.1
10 C  f0              0.0       0.0       0.0       0.2       0.0       0.0
10 C  f+1             0.0       0.0       0.0       0.0       0.2       0.0
10 C  f-1             0.0       0.0       0.0       1.1       0.2       0.0
10 C  f+2             0.0       0.0       0.0       0.0       0.1       0.6
10 C  f-2             0.0       0.0       0.0       0.1       0.0       0.0
10 C  f-3             0.0       0.0       0.0       0.4       0.3       0.0
11 F  s               0.0       0.0       0.0      22.0      15.4      33.5
11 F  pz              0.0       0.0       0.0       0.7       0.1       0.1
11 F  py              0.0       0.0       0.0       0.5       0.1       0.2
12 F  s               0.0       0.0       0.0      22.9      47.1       0.2
12 F  pz              0.0       0.0       0.0       0.0       0.0       0.2
12 F  px              0.0       0.0       0.0       0.7       0.2       0.0
12 F  py              0.0       0.0       0.0       0.6       0.1       0.0
13 F  s               0.0       0.0       0.0      21.9       9.9      39.3
13 F  pz              0.0       0.0       0.0       1.1       0.1       0.2
13 F  py              0.0       0.0       0.0       0.2       0.1       0.1

                     12        13        14        15        16        17   
                  -1.50243  -1.40342  -1.07968  -1.01681  -0.91447  -0.85883
                   2.00000   2.00000   2.00000   2.00000   2.00000   2.00000
                  --------  --------  --------  --------  --------  --------
 0 C  s               0.2       0.2      13.4       8.4       8.8       5.0
 0 C  px              0.5       0.4       1.3       0.1       1.1       1.7
 0 C  py              0.1       0.1       1.1       0.2       0.4       2.3
 0 C  dz2             0.0       0.0       0.1       0.0       0.1       0.2
 0 C  dxy             0.0       0.0       0.4       0.0       0.2       0.5
 1 H  s               0.0       0.0       3.3       2.6       4.2       2.6
 1 H  px              0.0       0.0       0.8       0.5       0.5       0.2
 1 H  py              0.0       0.0       0.1       0.1       0.3       0.3
 2 H  s               0.1       0.0       3.3       2.3       3.6       3.0
 2 H  pz              0.0       0.0       0.4       0.3       0.5       0.4
 2 H  py              0.0       0.0       0.4       0.2       0.2       0.1
 3 H  s               0.1       0.0       3.3       2.3       3.5       3.0
 3 H  pz              0.0       0.0       0.5       0.3       0.5       0.4
 3 H  py              0.0       0.0       0.3       0.2       0.2       0.1
 4 C  s               3.1       1.9      17.0       2.6       1.8       6.4
 4 C  px              4.5       1.2       1.3       3.2       4.0       0.4
 4 C  py              0.7       0.9       0.9       0.3       0.9       3.3
 4 C  dz2             0.6       0.3       0.1       0.0       0.1       0.5
 4 C  dx2y2           0.7       0.2       0.0       0.1       0.0       0.1
 4 C  dxy             0.8       0.7       0.3       0.6       1.0       0.1
 4 C  f-3             0.2       0.1       0.1       0.0       0.0       0.0
 5 H  s               0.7       0.2       4.1       0.7       0.8       4.0
 5 H  pz              0.1       0.0       0.7       0.1       0.1       0.6
 5 H  px              0.0       0.0       0.0       0.0       0.1       0.0
 5 H  py              0.1       0.0       0.4       0.1       0.0       0.1
 6 H  s               0.6       0.2       4.1       0.7       0.8       4.0
 6 H  pz              0.1       0.0       0.6       0.1       0.1       0.6
 6 H  py              0.1       0.1       0.5       0.1       0.0       0.1
 7 O  s              32.2      18.8       0.1       1.2       0.2       0.9
 7 O  px              0.5       0.2      13.9       0.0      10.0       2.5
 7 O  py              1.7       0.2       0.1       0.1       0.2       0.8
 7 O  dx2y2           0.0       0.1       0.0       0.2       0.1       0.1
 7 O  dxy             0.1       0.0       0.4       0.0       0.3       0.2
 8 C  s              19.6       2.8       4.0       1.8       3.3       0.6
 8 C  pz              0.0       0.2       0.0       0.0       0.0       0.0
 8 C  px              4.0       3.9       0.7       6.4       0.4       5.2
 8 C  py              0.4      21.5       5.2       2.2       2.5       0.2
 8 C  dz2             1.8       0.1       0.0       0.0       0.1       0.0
 8 C  dx2y2           0.2       4.3       0.0       0.2       0.1       0.9
 8 C  dxy             1.7       0.8       0.0       1.3       0.0       0.6
 8 C  f-1             0.0       0.3       0.1       0.0       0.0       0.0
 8 C  f-3             0.9       0.0       0.0       0.0       0.0       0.0
 9 O  s              15.5      35.9       1.2       0.7       0.6       0.9
 9 O  px              0.2       0.1       0.1       0.6       0.1       0.9
 9 O  py              2.7       2.3       0.5       0.4       0.8       0.9
 9 O  dx2y2           0.2       0.2       0.0       0.0       0.0       0.0
10 C  s               0.4       0.0       3.1      13.3       2.0       0.1
10 C  px              2.2       0.0       2.6       2.6       6.7       4.1
10 C  py              0.8       0.4       0.8       1.4       2.1       8.2
10 C  dz2             0.2       0.0       0.2       0.1       0.0       0.3
10 C  dx2y2           0.1       0.4       0.2       0.0       0.0       0.1
10 C  dxy             0.3       0.2       0.2       0.4       0.1       0.0
11 F  s               0.1       0.0       0.7       3.0       1.0       0.5
11 F  pz              0.0       0.0       0.6       4.2       4.7       7.7
11 F  px              0.0       0.0       0.2       0.1       3.5       3.4
11 F  py              0.0       0.0       1.0       5.6       1.6       0.0
11 F  dyz             0.0       0.0       0.0       0.2       0.1       0.0
12 F  s               0.1       0.1       0.5       3.2       1.6       0.0
12 F  pz              0.0       0.0       0.0       0.2       0.4       0.0
12 F  px              0.0       0.0       1.1       8.6       2.9       3.4
12 F  py              0.0       0.0       0.1       1.5       8.9       5.4
12 F  dxy             0.0       0.0       0.0       0.1       0.2       0.0
13 F  s               0.1       0.0       0.7       3.0       1.0       0.4
13 F  pz              0.0       0.0       0.9       6.5       7.7       7.8
13 F  px              0.0       0.0       0.3       0.6       1.8       1.7
13 F  py              0.0       0.0       0.5       2.9       0.3       1.0
13 F  dz2             0.0       0.0       0.0       0.1       0.1       0.1
13 F  dyz             0.0       0.0       0.0       0.1       0.0       0.0

                     18        19        20        21        22        23   
                  -0.83999  -0.83670  -0.80117  -0.72963  -0.72487  -0.70876
                   2.00000   2.00000   2.00000   2.00000   2.00000   2.00000
                  --------  --------  --------  --------  --------  --------
 0 C  s               0.0       0.6       0.0       0.0       0.0       0.0
 0 C  pz              0.0       0.0       0.0       0.9       0.0       0.1
 0 C  px              0.0       0.2       0.7       0.0       0.0       0.3
 0 C  py              0.0       0.7       1.2       0.0       0.1       0.9
 0 C  dx2y2           0.0       0.0       0.3       0.0       0.0       0.1
 0 C  dxy             0.0       0.1       0.0       0.0       0.0       0.0
 1 H  s               0.0       0.2       0.4       0.0       0.0       0.3
 2 H  s               0.0       0.5       0.1       0.2       0.0       0.2
 3 H  s               0.0       0.5       0.1       0.3       0.0       0.0
 4 C  s               0.0       1.5       1.4       0.0       0.0       0.2
 4 C  pz              0.0       0.0       0.0       4.8       0.0       0.3
 4 C  px              0.0       0.0       1.4       0.0       0.1       1.3
 4 C  py              0.0       1.4       9.8       0.0       0.3       3.3
 4 C  dz2             0.0       0.1       0.5       0.0       0.0       0.1
 4 C  dxz             0.0       0.0       0.0       0.2       0.0       0.0
 4 C  dx2y2           0.0       0.0       0.2       0.0       0.0       0.0
 4 C  dxy             0.0       0.0       1.3       0.0       0.0       0.1
 4 C  f+3             0.0       0.0       0.2       0.0       0.0       0.0
 5 H  s               0.0       1.2       3.4       1.4       0.1       0.7
 5 H  pz              0.0       0.2       0.5       0.0       0.0       0.1
 5 H  py              0.0       0.0       0.0       0.1       0.0       0.0
 6 H  s               0.0       1.3       3.3       1.0       0.2       1.8
 6 H  pz              0.0       0.2       0.4       0.0       0.0       0.1
 6 H  py              0.0       0.0       0.0       0.1       0.0       0.0
 7 O  s               0.0       0.5       4.5       0.0       0.0       0.0
 7 O  pz              0.3       0.0       0.2      11.2       0.0       0.3
 7 O  px              0.0       0.0      13.8       0.0       0.6       6.8
 7 O  py              0.0       0.3      17.8       0.1       0.2       0.2
 7 O  dz2             0.0       0.0       0.1       0.0       0.0       0.0
 7 O  dxy             0.0       0.0       0.3       0.0       0.0       0.0
 8 C  s               0.0       0.0       3.2       0.0       0.8       1.6
 8 C  pz              1.2       0.0       0.0       5.2       0.1       0.3
 8 C  px              0.0       0.0       7.1       0.0       0.4       1.2
 8 C  py              0.0       0.1       0.1       0.1       1.3       6.0
 8 C  dz2             0.0       0.0       0.3       0.0       0.0       0.3
 8 C  dxz             0.2       0.0       0.0       0.2       0.0       0.0
 8 C  dyz             0.1       0.0       0.0       0.1       0.0       0.0
 8 C  dx2y2           0.0       0.3       0.4       0.0       0.8       0.8
 8 C  dxy             0.0       0.4       0.4       0.0       0.1       0.1
 8 C  f0              0.1       0.0       0.0       0.1       0.0       0.0
 8 C  f+3             0.0       0.1       0.0       0.0       0.0       0.2
 9 O  s               0.0       0.0       2.7       0.0       3.1       7.7
 9 O  pz              0.3       0.0       0.1       2.1       0.0       0.0
 9 O  px              0.0       0.1       4.5       0.0       0.6       0.2
 9 O  py              0.0       0.0       4.7       0.1      11.7      35.3
 9 O  dx2y2           0.0       0.0       0.1       0.0       0.1       0.4
 9 O  dxy             0.0       0.0       0.2       0.0       0.0       0.0
10 C  s               0.0       0.0       0.2       0.0       0.0       0.0
10 C  pz             16.5       0.1       0.0       0.3       0.0       0.1
10 C  px              0.0       7.0       1.4       0.0       0.1       0.7
10 C  py              0.1       7.8       0.2       0.0       0.5       0.6
10 C  dz2             0.2       0.7       0.0       0.3       3.6       0.6
10 C  dxz             0.4       0.1       0.0       6.7       0.0       0.1
10 C  dyz             0.9       0.2       0.0       0.1       0.6       0.1
10 C  dx2y2           0.0       0.2       0.5       0.0       3.3       0.2
10 C  dxy             0.1       0.3       0.4       0.2       0.0       1.0
10 C  f-2             0.0       0.0       0.0       0.2       0.0       0.0
10 C  f+3             0.0       0.1       0.0       0.0       0.2       0.2
11 F  s               2.0       0.8       0.0       0.1       0.0       0.0
11 F  pz              2.5      15.3       0.2       0.9       6.4       0.7
11 F  px              0.5       3.9       2.8      22.7       1.3       0.7
11 F  py             24.3       0.2       0.2       1.3      18.2       4.0
11 F  dyz             0.1       0.1       0.0       0.0       0.0       0.0
12 F  s               0.0       2.9       0.0       0.0       0.1       0.2
12 F  pz             15.7       1.5       0.1      13.7       0.0       0.1
12 F  px              0.7      21.6       0.5       0.1      11.5      12.5
12 F  py              0.6       7.7       4.1       0.4       6.2       0.5
12 F  dxy             0.0       0.2       0.0       0.0       0.0       0.0
13 F  s               2.5       0.4       0.0       0.1       0.0       0.0
13 F  pz             13.8       8.0       0.0       0.1       1.9       0.0
13 F  px              0.0       7.7       2.8      23.1       0.7       0.8
13 F  py             16.0       1.8       0.0       0.8      23.9       4.7
13 F  dyz             0.2       0.0       0.0       0.0       0.0       0.0

                     24        25        26        27        28        29   
                  -0.70472  -0.67649  -0.67623  -0.67490  -0.66027  -0.60982
                   2.00000   2.00000   2.00000   2.00000   2.00000   2.00000
                  --------  --------  --------  --------  --------  --------
 0 C  s               0.0       0.0       0.0       0.2       0.0       0.0
 0 C  pz              4.3       0.5       0.2       0.2       0.0      19.9
 0 C  px              0.0       0.1       0.1       1.2       0.0       0.1
 0 C  py              0.0       0.5       0.0       3.0       0.0       0.1
 0 C  dz2             0.0       0.0       0.0       0.1       0.0       0.0
 0 C  dxz             0.3       0.0       0.0       0.0       0.0       0.2
 0 C  dyz             0.0       0.0       0.0       0.0       0.0       0.4
 0 C  dxy             0.0       0.0       0.0       0.2       0.0       0.0
 1 H  s               0.0       0.0       0.0       0.2       0.0       0.0
 1 H  pz              0.1       0.0       0.0       0.0       0.0       0.8
 1 H  py              0.0       0.0       0.0       0.2       0.0       0.0
 1 H  dxz             0.0       0.0       0.0       0.0       0.0       0.1
 2 H  s               1.0       0.5       0.1       0.6       0.0       6.8
 2 H  pz              0.0       0.0       0.0       0.1       0.0       0.1
 2 H  py              0.1       0.0       0.0       0.0       0.0       0.4
 3 H  s               1.0       0.0       0.0       1.2       0.0       6.4
 3 H  py              0.1       0.0       0.0       0.0       0.0       0.4
 4 C  s               0.0       0.1       0.0       0.7       0.0       0.0
 4 C  pz             17.0       1.4       0.5       0.2       0.1       9.0
 4 C  px              0.1       0.4       0.0       4.0       0.0       0.0
 4 C  dxz             0.3       0.0       0.0       0.0       0.0       1.5
 4 C  dyz             0.0       0.0       0.0       0.0       0.0       0.1
 4 C  dx2y2           0.0       0.0       0.0       0.4       0.0       0.0
 4 C  f-2             0.0       0.0       0.0       0.0       0.0       0.2
 5 H  s               4.7       0.1       0.2       1.0       0.0       2.9
 5 H  px              0.0       0.0       0.0       0.2       0.0       0.0
 5 H  py              0.3       0.0       0.0       0.0       0.0       0.2
 6 H  s               4.2       0.9       0.1       0.2       0.0       2.9
 6 H  px              0.0       0.0       0.0       0.3       0.0       0.0
 6 H  py              0.4       0.0       0.0       0.0       0.0       0.2
 7 O  s               0.0       0.1       0.0       0.5       0.0       0.0
 7 O  pz             20.6       0.6       0.2       0.1       0.0       9.1
 7 O  px              0.0       0.5       0.1       1.2       0.0       0.0
 7 O  py              0.0       1.2       0.3      13.9       0.0       0.1
 7 O  dxz             0.0       0.0       0.0       0.0       0.0       0.4
 7 O  dyz             0.1       0.0       0.0       0.0       0.0       0.0
 8 C  s               0.0       0.1       0.0       0.8       0.0       0.0
[...]
 42   0.000000282691   0.000000603798         1.860
 43   0.000000298261   0.000000867196         1.869
 44   0.000000576796   0.000000446320         1.872
 45   0.000000754517   0.000002525259         1.887
 46   0.000000896315   0.000000328840         1.892
 47   0.000000368236   0.000000913733         1.945
 48   0.000000467254   0.000000144486         1.897
 49   0.000000278363   0.000000230524         1.792
 50   0.000000167789   0.000000140947         1.824
 51   0.000000265373   0.000000179119         1.855
 52   0.000000243828   0.000000308056         1.819
 53   0.000000261257   0.000000097505         1.814

      *** CONVERGENCE OF RESIDUAL NORM REACHED ***
        --- The EOM iterations have converged ---

BATCH   3 OF   4

	***CVS will be used for Orb ID=7, Root ID=3***

Iter    Delta-E          Residual              Time
---------------------------------------------------
  0  11.308696764040   0.823112775185         1.748
  1   0.240014666031   0.602815963160         1.743
  2   0.223239096069   0.197101354803         1.753
  3   0.273139751261  12.147444458999         1.763
  4   0.292824930922   0.029900902569         1.781
  5   0.017263620870   0.031865787771         1.777
  6   0.006234640627   0.039748278130         1.785
  7   0.006850079776   0.006087322534         1.805
  8   0.014039685163   0.629080420295         1.810
  9   0.012806078101   0.005635247463         1.814
 10   0.001177854498   0.002386718592         1.815
 11   0.000450759679   0.004896703416         1.822
 12   0.000589751177   0.000804726145         1.829
 13   0.000171735348   0.001117253900         1.839
 14   0.000072200140   0.000615298976         1.842
 15   0.000046952621   0.000295370571         1.897
 16   0.000040557874   0.001050807649         1.868
 17   0.000053937707   0.000492132081         1.868
 18   0.000031721873   0.000695691406         1.866
 19   0.000026154939   0.000102700571         1.873
 20   0.000007380062   0.000282894308         1.891
 21   0.000007991762   0.000050451192         1.898
 22   0.000002260561   0.000061543435         1.902
 23   0.000001464199   0.000023313839         1.940
 24   0.000002141271   0.000017896036         2.016
 25   0.000002852163   0.000151658155         1.935
 26   0.000003614095   0.000005629785         2.057
 27   0.000000596251   0.000005617500         1.934
 28   0.000000328111   0.000007737020         1.943
 29   0.000000296844   0.000002546874         1.943
 30   0.000001253838   0.000042883264         1.952
 31   0.000001313193   0.000002753639         1.958
 32   0.000000640413   0.000005477019         2.091
 33   0.000000787078   0.000000752794         2.052
 34   0.000000904061   0.000001861543         1.981
 35   0.000000599168   0.000000574466         2.003
 36   0.000000639496   0.000000349048         1.995
 37   0.000000903060   0.000002297851         2.024
 38   0.000001254523   0.000000159500         2.034
 39   0.000000553460   0.000000268584         2.009
 40   0.000000031693   0.000048821852         3.470
 41   0.000000036226   0.000000154898         1.758
 42   0.000000048370   0.000004747284         1.767
 43   0.000000049697   0.000000166095         1.780
 44   0.000000078974   0.000010550895         1.782
 45   0.000000091726   0.000000169878         1.809
 46   0.000000112064   0.000000406349         1.829
 47   0.000000224984   0.000001030150         1.911
 48   0.000000465302   0.000000668397         1.914
 49   0.000005195064   0.000083894144         1.911
 50   0.000005854382   0.000001928698         1.907
 51   0.000014893905   0.000203723258         1.940
 52   0.000016021601   0.000006309934         1.910
 53   0.000003633491   0.000009599558         1.869
 54   0.000003437929   0.000004337590         1.852
 55   0.000004375213   0.000014920739         1.891
 56   0.000004564591   0.000002931266         2.019
 57   0.000001553294   0.000001549067         1.875
 58   0.000001279499   0.000000347764         1.905
 59   0.000049704912   0.002550664973         1.910
 60   0.000049168536   0.000000152259         1.968
 61   0.000000617847   0.000000227432         1.931
 62   0.000000312029   0.000000116439         1.935
 63   0.000000320630   0.000000035002         1.898

      *** CONVERGENCE OF RESIDUAL NORM REACHED ***
        --- The EOM iterations have converged ---

BATCH   4 OF   4

	***CVS will be used for Orb ID=8, Root ID=4***

Iter    Delta-E          Residual              Time
---------------------------------------------------
  0  11.237864320030   0.829201919317         1.772
  1   0.238761121452   0.608725498673         1.774
  2   0.223280262839   0.199179504787         1.786
  3   0.529737530486  27.571152130408         1.790
  4   0.550455711803   0.027269305608         1.796
  5   0.015014571720   0.015669109570         1.804
  6   0.007303571703   0.103293514044         1.815
  7   0.009154714581   0.003265135934         1.845
  8   0.001899567314   0.005160210697         1.812
  9   0.000736973945   0.003551145631         1.835
 10   0.000564823387   0.000851505258         1.826
 11   0.000378034974   0.007113705561         1.821
 12   0.000280334216   0.000557118213         1.832
 13   0.000057024433   0.000173865228         1.831
 14   0.000007913126   0.000302868663         1.853
 15   0.000001309910   0.000062408795         1.859
 16   0.000018717156   0.000151670395         1.864
 17   0.000010043536   0.000063867282         1.862
 18   0.000009787255   0.000013973225         1.876
 19   0.000119646754   0.007149308220         1.909
 20   0.000125667679   0.000011246819         1.912
 21   0.000016747549   0.000175545639         1.916
 22   0.000014696191   0.000005347570         1.924
 23   0.000007348621   0.000050425489         1.917
 24   0.000008728300   0.000003618287         1.993
 25   0.000002993783   0.000002800641         1.917
 26   0.000001333164   0.000001895235         1.992
 27   0.000001663292   0.000000565124         1.929
 28   0.000001636475   0.000003376412         1.940
 29   0.000001184833   0.000000299910         1.943
 30   0.000001218060   0.000003065824         1.948
 31   0.000001045267   0.000000292116         1.952
 32   0.000002083635   0.000016608085         1.958
 33   0.000001986228   0.000000106570         1.979
 34   0.000000220188   0.000000079932         1.868

      *** CONVERGENCE OF RESIDUAL NORM REACHED ***
        --- The EOM iterations have converged ---

----------------------
EOM-CCSD RESULTS (RHS)
----------------------

IROOT=  1: 11.025489 au   300.019 eV 2419815.2 cm**-1
  Amplitude    Excitation
   0.669486     5 -> x
Percentage singles character=     81.23

IROOT=  2: 10.913447 au   296.970 eV 2395224.7 cm**-1
  Amplitude    Excitation
   0.669517     6 -> x
Percentage singles character=     81.24

IROOT=  3: 10.805168 au   294.024 eV 2371460.2 cm**-1
  Amplitude    Excitation
   0.669350     7 -> x
Percentage singles character=     81.17

IROOT=  4: 10.736398 au   292.152 eV 2356367.1 cm**-1
  Amplitude    Excitation
   0.670487     8 -> x
Percentage singles character=     81.67




--------------------------------------------------------------------------------
                                    TIMINGS
--------------------------------------------------------------------------------


Total execution time                   ...      789.269 sec

Localization of occupied MO's          ...        0.212 sec (  0.0%)
Fock Matrix Formation                  ...        5.354 sec (  0.7%)
Global overlap, Fock, MKN matrices     ...        0.227 sec (  0.0%)
Differential overlap integrals         ...        0.477 sec (  0.1%)
Organizing maps                        ...        0.016 sec (  0.0%)
RI 3-index integral generations        ...        2.872 sec (  0.4%)
RI-PNO integral transformation         ...       66.249 sec (  8.4%)
Initial Guess                          ...       15.132 sec (  1.9%)
DIIS Solver                            ...        3.292 sec (  0.4%)
State Vector Update                    ...        0.063 sec (  0.0%)
Sigma-vector construction              ...      155.514 sec ( 19.7%)
  <D|H|D>(0-ext)                       ...        9.221 sec (  5.9% of sigma)
  <D|H|D>(2-ext Fock)                  ...        0.023 sec (  0.0% of sigma)
  <D|H|D>(2-ext)                       ...       24.252 sec ( 15.6% of sigma)
  <D|H|D>(4-ext)                       ...       10.890 sec (  7.0% of sigma)
  <D|H|D>(4-ext-corr)                  ...       67.379 sec ( 43.3% of sigma)
  CCSD doubles correction              ...        0.696 sec (  0.4% of sigma)
  <S|H|S>                              ...        0.611 sec (  0.4% of sigma)
  <S|H|D>(1-ext)                       ...        1.059 sec (  0.7% of sigma)
  <D|H|S>(1-ext)                       ...        0.029 sec (  0.0% of sigma)
  <S|H|D>(3-ext)                       ...        0.386 sec (  0.2% of sigma)
  Fock-dressing                        ...       21.532 sec ( 13.8% of sigma)
  Singles amplitudes                   ...        3.176 sec (  2.0% of sigma)
  (ik|jl)-dressing                     ...        7.615 sec (  4.9% of sigma)
  (ij|ab),(ia|jb)-dressing             ...        5.692 sec (  3.7% of sigma)
  Pair energies                        ...        0.015 sec (  0.0% of sigma)
Total Time for computing EOM-CCSD      ...      497.890 sec ( 63.1% of ALL)
  Dressing integrals                   ...       82.099 sec ( 16.5% of (EOM))
  EOM Singles                          ...        0.593 sec (  0.1% of (EOM))
  EOM Doubles                          ...      379.525 sec ( 76.2% of (EOM))
  Build Hamiltonian                    ...        4.018 sec (  0.8% of (EOM))
  Diagonalize Hamiltonian              ...        0.625 sec (  0.1% of (EOM))
  Ritz vectors                         ...        6.061 sec (  1.2% of (EOM))
  Residual vectors                     ...        6.277 sec (  1.3% of (EOM))
  Orthogonalization                    ...       14.499 sec (  2.9% of (EOM))
One-particle density matrix            ...        0.320 sec (  0.0%)


Maximum memory used throughout the entire MDCI-calculation: 1998.2 MB

-------------------------   --------------------
FINAL SINGLE POINT ENERGY      -593.657841347757
-------------------------   --------------------



           ************************************************************
           *        Program running with 16 parallel MPI-processes    *
           *              working on a common directory               *
           ************************************************************

------------------------------------------------------------------------------
                              ORCA PROPERTY CALCULATIONS
------------------------------------------------------------------------------

GBWName                                 ... bt-eom.gbw
Number of atoms                         ...     14
Number of basis functions               ...    394
Max core memory                         ...   4000 MB

Electric properties:
Dipole moment                           ... YES
Quadrupole moment                       ...  NO
Static polarizability (Dipole/Dipole)   ...  NO
Static polarizability (Dipole/Quad.)    ...  NO
Static polarizability (Quad./Quad.)     ...  NO
Static polarizability (Velocity)        ...  NO

Atomic electric properties:
Dipole moment                           ...  NO
Quadrupole moment                       ...  NO
Static polarizability                   ...  NO

Choice of electric origin               ... Center of mass
Position of electric origin             ...    -1.473610     2.169321     0.083978

General magnetic properties:
Magnetizability                         ...  NO

EPR properties:
g-Tensor (aka g-matrix)                 ...  NO
Zero-Field splitting spin-orbit         ...  NO
Zero-field splitting spin-spin          ...  NO
Hyperfine couplings                     ...  NO (   0 nuclei)
Quadrupole couplings                    ...  NO (   0 nuclei)
Contact density                         ...  NO (   0 nuclei)

NMR properties:
Chemical shifts                         ...  NO (   0 nuclei)
Spin-rotation constants                 ...  NO (   0 nuclei)
Spin-spin couplings                     ...  NO (   0 nuclei,    0 pairs)

Choice of magnetic origin               ... GIAO
Position of magnetic origin             ...     0.000000     0.000000     0.000000

Properties with geometric perturbations:
SCF Hessian                             ...  NO
IR spectrum                             ...  NO
VCD spectrum                            ...  NO
X-ray spectroscopy properties:
SCF XES/XAS/RIXS spectra                ...  NO


-------------
DIPOLE MOMENT
-------------

Method             : SCF
Type of density    : Electron Density
Multiplicity       :   1
Irrep              :   0
Energy             :  -602.6711207525648888 Eh
Relativity type    : 
Basis              : AO
                                X                 Y                 Z
Electronic contribution:    -18.269762041      -2.085285786       0.784422228
Nuclear contribution   :     19.573122213       1.861246739      -0.859319080
                        -----------------------------------------
Total Dipole Moment    :      1.303360172      -0.224039047      -0.074896852
                        -----------------------------------------
Magnitude (a.u.)       :      1.324594568
Magnitude (Debye)      :      3.366851825



--------------------
Rotational spectrum 
--------------------
 
Rotational constants in cm-1:             0.103599             0.032596             0.028834 
Rotational constants in MHz :          3105.823699           977.195472           864.408930 

Dipole components along the rotational axes: 
x,y,z [a.u.] :     1.283644    -0.326793    -0.003779 
x,y,z [Debye]:     3.262765    -0.830641    -0.009606 

 

-------------
DIPOLE MOMENT
-------------

Method             : MDCI(SD)
Type of density    : Electron Density
Multiplicity       :   1
Level              : Linearized density
Irrep              :   0
Energy             :     0.0000000000000000 Eh
Relativity type    : 
Basis              : AO
                                X                 Y                 Z
Electronic contribution:    -18.334007441      -2.023975120       0.790070430
Nuclear contribution   :     19.573122213       1.861246739      -0.859319080
                        -----------------------------------------
Total Dipole Moment    :      1.239114772      -0.162728381      -0.069248650
                        -----------------------------------------
Magnitude (a.u.)       :      1.251671410
Magnitude (Debye)      :      3.181495887



--------------------
Rotational spectrum 
--------------------
 
Rotational constants in cm-1:             0.103599             0.032596             0.028834 
Rotational constants in MHz :          3105.823699           977.195472           864.408930 

Dipole components along the rotational axes: 
x,y,z [a.u.] :     1.224252    -0.260541    -0.002514 
x,y,z [Debye]:     3.111802    -0.662242    -0.006390 

 

Dipole moment calculation done in   0.0 sec 

Maximum memory used throughout the entire PROP-calculation: 20.2 MB

--------------------------------
SUGGESTED CITATIONS FOR THIS RUN
--------------------------------

Below you find a list of papers that are relevant to this ORCA run
We neither can nor want to force you to cite these papers, but we appreciate if you do
You receive ORCA, which is the product of decades of hard work by many enthusiastic individuals, for free
The only thing we kindly ask in return is that you cite our papers,
We deeply appreciate it, if you show your appreciation for ORCA by not just citing the generic ORCA reference.

Please note that relegating all ORCA citations to the supporting information does *not* help us.
SI sections are not indexed - citations you put there will not count into any citation statistics
But we need these citations in order to attract the funding resources that allow us to do what we are doing

Therefore, if you are a happy ORCA user, please consider citing a few of the papers listed below in the main body of your paper

In addition to the list printed below, the program has created the file bt-eom.bibtex that contains the list in bibtex format
You can import this file easily into all common literature databanks and citation aid programs


List of essential papers. We consider these as the minimum necessary citations

  1. Neese,F.
     Software update: the ORCA program system, version 5.0
     WIRES Comput. Molec. Sci., 2022 12(1)e1606
     doi.org/10.1002/wcms.1606

List of papers to cite with high priority. The work reported in these papers was absolutely
necessary for this run to complete.
Our perspective: the developers of density functionals and basis sets usually get cited in chemistry papers
Good! But without the algorithms to do something with them, the functionals or basis sets would not do anything.
Hence, in our opinion, the algorithm design and method developments papers are equally worthy of getting cited

  1. Neese,F.; Hansen,A.; Liakos,D.G.
     Efficient and accurate approximations to the local coupled cluster singles doubles method using a truncated pair natural orbital basis
     J. Chem. Phys., 2009 131 064103
     doi.org/10.1063/1.3173827
  2. Neese,F.; Wennmohs,F.; Hansen,A.
     Efficient and accurate local approximations to coupled-electron pair approaches: An attempt to revive the pair natural orbital method
     J. Chem. Phys., 2009 130 114108
     doi.org/10.1063/1.3086717
  3. Riplinger,C.; Neese,F.
     An efficient and near linear scaling pair natural orbital based local coupled cluster method
     J. Chem. Phys., 2013 138(3)Art. No. 034106
     doi.org/10.1063/1.4773581
  4. Datta,D.; Kossmann,S.; Neese,F.
     Analytic energy derivatives for the calculation of the first-order molecular properties using the domain-based local pair-natural orbital coupled-cluster theory
     J. Chem. Phys., 2016 145 
     doi.org/10.1063/1.4962369
  5. Riplinger,C.; Pinski,P.; Becker,U.; Valeev,E.F.; Neese,F.
     Sparse maps-A systematic infrastructure for reduced-scaling electronic structure methods. II. Linear scaling domain based pair natural orbital coupled cluster theory
     J. Chem. Phys., 2016 144 
     doi.org/10.1063/1.4939030
  6. Neese,F.
     The SHARK Integral Generation and Digestion System
     J. Comp. Chem., 2022  1-16
     doi.org/10.1002/jcc.26942

List of suggested additional citations. These are papers that are important in the 'surrounding' of 
of this run, or papers that preceded the highly important papers. If you like your results we are grateful for a citation.

  1. Neese,F.
     The ORCA program system
     WIRES Comput. Molec. Sci., 2012 2(1)73-78
     doi.org/10.1002/wcms.81
  2. Neese,F.
     Software update: the ORCA program system, version 4.0
     WIRES Comput. Molec. Sci., 2018 8(1)1-6
     doi.org/10.1002/wcms.1327
  3. Neese,F.; Wennmohs,F.; Becker,U.; Riplinger,C.
     The ORCA quantum chemistry program package
     J. Chem. Phys., 2020 152 Art. No. L224108
     doi.org/10.1063/5.0004608

List of optional additional citations

  1. Neese,F.
     Approximate second-order SCF convergence for spin unrestricted wavefunctions
     Chem. Phys. Lett., 2000 325(1-3)93-98
     doi.org/10.1016/s0009-2614(00)00662-x

Timings for individual modules:

Sum of individual times          ...      862.338 sec (=  14.372 min)
Startup calculation              ...        2.155 sec (=   0.036 min)   0.2 %
SCF iterations                   ...       67.828 sec (=   1.130 min)   7.9 %
Property integrals               ...        1.077 sec (=   0.018 min)   0.1 %
Property calculations            ...        0.493 sec (=   0.008 min)   0.1 %
MDCI module                      ...      790.785 sec (=  13.180 min)  91.7 %
                             ****ORCA TERMINATED NORMALLY****
TOTAL RUN TIME: 0 days 0 hours 14 minutes 22 seconds 880 msec
