
                                 *****************
                                 * O   R   C   A *
                                 *****************

                                            #,                                       
                                            ###                                      
                                            ####                                     
                                            #####                                    
                                            ######                                   
                                           ########,                                 
                                     ,,################,,,,,                         
                               ,,#################################,,                 
                          ,,##########################################,,             
                       ,#########################################, ''#####,          
                    ,#############################################,,   '####,        
                  ,##################################################,,,,####,       
                ,###########''''           ''''###############################       
              ,#####''   ,,,,##########,,,,          '''####'''          '####       
            ,##' ,,,,###########################,,,                        '##       
           ' ,,###''''                  '''############,,,                           
         ,,##''                                '''############,,,,        ,,,,,,###''
      ,#''                                            '''#######################'''  
     '                                                          ''''####''''         
             ,#######,   #######,   ,#######,      ##                                
            ,#'     '#,  ##    ##  ,#'     '#,    #''#        ,####,   ,####,        
            ##       ##  ##   ,#'  ##            #'  '#       #'       #'  '#        
            ##       ##  #######   ##           ,######,      #####,   #    #        
            '#,     ,#'  ##    ##  '#,     ,#' ,#      #,     #,   #   #,  ,#        
             '#######'   ##     ##  '#######'  #'      '#     '####' # '####'        



                #########################################################
                #                        -***-                          #
                #          Department of theory and spectroscopy        #
                #                                                       #
                #                      Frank Neese                      #
                #                                                       #
                #     Directorship, Architecture, Infrastructure        #
                #                    SHARK, DRIVERS                     #
                #        Core code/Algorithms in most modules           #
                #                                                       #
                #        Max Planck Institute fuer Kohlenforschung      #
                #                Kaiser Wilhelm Platz 1                 #
                #                 D-45470 Muelheim/Ruhr                 #
                #                      Germany                          #
                #                                                       #
                #                  All rights reserved                  #
                #                        -***-                          #
                #########################################################


                         Program Version 6.0.1  -  RELEASE   -


 With contributions from (in alphabetic order):
[Max-Planck-Institut fuer Kohlenforschung]                               
  Daniel Aravena         : Magnetic Suceptibility                        
  Michael Atanasov       : Ab Initio Ligand Field Theory (pilot matlab implementation)
  Alexander A. Auer      : GIAO ZORA, VPT2 properties, NMR spectrum      
  Ute Becker             : All parallelization in ORCA, NUMFREQ, NUMCALC 
  Giovanni Bistoni       : ED, misc. LED, open-shell LED, HFLD           
  Martin Brehm           : Molecular dynamics                            
  Dmytro Bykov           : pre 5.0 version of the SCF Hessian            
  Marcos Casanova-Páez   : Triplet and SCS-CIS(D). UHF-(DLPNO)-IP/EA/STEOM-CCSD. UHF-CVS-IP/STEOM-CCSD   
  Vijay G. Chilkuri      : MRCI spin determinant printing, contributions to CSF-ICE 
  Pauline Colinet        : FMM embedding                                 
  Dipayan Datta          : RHF DLPNO-CCSD density                        
  Achintya Kumar Dutta   : EOM-CC, STEOM-CC                              
  Nicolas Foglia         : Exact transition moments, OPA infrastructure, MCD improvements    
  Dmitry Ganyushin       : Spin-Orbit,Spin-Spin,Magnetic field MRCI      
  Miquel Garcia-Rates    : C-PCM and meta-GGA Hessian, CCSD/C-PCM, Gaussian charge scheme 
  Tiago L. C. Gouveia    : GS-ROHF, GS-ROCIS                             
  Yang Guo               : DLPNO-NEVPT2, F12-NEVPT2, CIM, IAO-localization        
  Andreas Hansen         : Spin unrestricted coupled pair/coupled cluster methods 
  Ingolf Harden          : AUTO-CI MPn and infrastructure                
  Benjamin Helmich-Paris : MC-RPA, TRAH-(SCF,CASSCF), AVAS, COSX integrals, SCF dyn. polar. 
  Lee Huntington         : MR-EOM, pCC                                   
  Robert Izsak           : Overlap fitted RIJCOSX, COSX-SCS-MP3, EOM     
  Riya Kayal             : Wick's Theorem for AUTO-CI, AUTO-CI UHF-CCSDT 
  Emily Kempfer          : AUTO-CI, RHF CISDT and CCSDT                  
  Christian Kollmar      : KDIIS, OOCD, Brueckner-CCSD(T), CCSD density, CASPT2, CASPT2-K, improved NEVPT2 
  Axel Koslowski         : Symmetry handling                             
  Simone Kossmann        : meta-GGA functionals, TD-DFT gradient, OOMP2, (MP2 Hessian; deprecated post 5.0) 
  Lucas Lang             : DCDCAS                                        
  Marvin Lechner         : AUTO-CI (C++ implementation), FIC-MRCC        
  Spencer Leger          : CASSCF response                               
  Dagmar Lenk            : GEPOL surface, SMD, ORCA-2-JSON               
  Dimitrios Liakos       : Extrapolation schemes; Compound Job, initial MDCI parallelization 
  Dimitrios Manganas     : Further ROCIS development; embedding schemes. LFT, Crystal Embedding 
  Dimitrios Pantazis     : SARC Basis sets                               
  Anastasios Papadopoulos: AUTO-CI, single reference methods and gradients 
  Taras Petrenko         : pre 6.0 DFT Hessian and TD-DFT gradient, (ASA, deprecated), ECA, 1-Electron XAS/XES, NRVS 
  Peter Pinski           : DLPNO-MP2, DLPNO-MP2 Gradient                 
  Christoph Reimann      : Effective Core Potentials                     
  Marius Retegan         : Local ZFS, SOC                                
  Christoph Riplinger    : Optimizer, TS searches, QM/MM, DLPNO-CCSD(T), (RO)-DLPNO pert. Triples 
  Michael Roemelt        : Original ROCIS implementation                 
  Masaaki Saitow         : Open-shell DLPNO-CCSD energy and density      
  Barbara Sandhoefer     : DKH picture change effects                    
  Kantharuban Sivalingam : CASSCF convergence/infrastructure, NEVPT2 and variants, FIC-MRCI 
  Bernardo de Souza      : ESD, SOC TD-DFT                               
  Georgi L. Stoychev     : AutoAux, RI-MP2 NMR, DLPNO-MP2 response, X2C  
  Van Anh Tran           : RI-MP2 g-tensors                              
  Willem Van den Heuvel  : Paramagnetic NMR                              
  Zikuan Wang            : NOTCH, Electric field optimization            
  Frank Wennmohs         : Technical directorship and infrastructure     
  Hang Xu                : AUTO-CI-Response properties                   
                                                                         
[FACCTs GmbH]                                                            
  Markus Bursch, Miquel Garcia-Rates, Christoph Riplinger, Bernardo de Souza, Georgi L. Stoychev 
                                                                 
  APM, Basis sets (HGBS, AHGBS, def-TZVP (Ac-Lr), def2-XVPD (La-Lu)), CI-OPT, improved COSX, DLPNO-Multilevel,           
  DOCKER, DRACO, updates on ESD, GOAT, IRC, LR-CPCM, MBIS, meta-GGA TD-DFT gradient, ML-optimized integration grids, 
  MM, NACMEs, nearIR, NEB, NEB-TS, NL-DFT gradient (VV10), 2- and 3-layer-ONIOM, interface openCOSMO-RS, QMMM,   
  Crystal-QMMM, SF, symmetry and pop. for TD-DFT, r2SCAN hybrids, SOLVATOR                                   
                                                                         
[Other institutions]                                                     
  V. Asgeirsson          : NEB                                           
  Christoph Bannwarth    : sTDA-DFT, sTD-DFT, PBEh-3c, B97-3c, D3        
  Sebastian Ehlert       : rSCAN, r2SCAN, r2SCAN-3c, D4, dhf basis sets  
  Marvin Friede          : D4 for Fr, Ra, Ac-Lr                          
  Lars Goerigk           : TD-DFT with DH, B97 family of functionals     
  Stefan Grimme          : VdW corrections, initial TS optimization, DFT functionals, gCP, sTDA/sTD-DF 
  Waldemar Hujo          : DFT-NL                                        
  H. Jonsson             : NEB                                           
  Holger Kruse           : gCP                                           
  Marcel Mueller         : wB97X-3c, vDZP basis set                      
  Hagen Neugebauer       : wr2SCAN                                       
  Tobias Risthaus        : range-separated hybrid DFT                    
  Lukas Wittmann         : regularized MP2, r2SCAN double-hybrids, wr2SCAN        
                                                                         
We gratefully acknowledge several colleagues who have allowed us to      
interface, adapt or use parts of their codes:                            
  Ed Valeev, F. Pavosevic, A. Kumar             : LibInt (2-el integral package), F12 methods 
  Garnet Chan, S. Sharma, J. Yang, R. Olivares  : DMRG                   
  Ulf Ekstrom                                   : XCFun DFT Library      
  Mihaly Kallay                                 : mrcc  (arbitrary order and MRCC methods)
  Frank Weinhold                                : gennbo (NPA and NBO analysis)           
  Simon Mueller                                 : openCOSMO-RS                            
  Christopher J. Cramer and Donald G. Truhlar   : smd solvation model                     
  S Lehtola, MJT Oliveira, MAL Marques          : LibXC Library                           
  Liviu Ungur et al                             : ANISO software                          


 Your calculation uses the libint2 library for the computation of 2-el integrals
 For citations please refer to: http://libint.valeyev.net

 Your ORCA version has been built with support for libXC version: 6.2.2
 For citations please refer to: https://libxc.gitlab.io

 This ORCA versions uses:
   CBLAS   interface :  Fast vector & matrix operations
   LAPACKE interface :  Fast linear algebra routines
   SCALAPACK package :  Parallel linear algebra routines
   Shared memory     :  Shared parallel matrices
   BLAS/LAPACK       :  OpenBLAS 0.3.27  USE64BITINT DYNAMIC_ARCH NO_AFFINITY SkylakeX SINGLE_THREADED
        Core in use  :  SkylakeX
   Copyright (c) 2011-2014, The OpenBLAS Project




***************************************
The coordinates will be read from file: opt.xyz
***************************************


================================================================================

----- Orbital basis set information -----
Your calculation utilizes the basis: def2-TZVPD
   F. Weigend and R. Ahlrichs, Phys. Chem. Chem. Phys. 7, 3297 (2005).
   D. Rappoport and F. Furche, J. Chem. Phys. 133, 134105 (2010)
   D. Rappoport, J. Chem. Phys. 155, 124102 (2021).

================================================================================
                                        WARNINGS
                       Please study these warnings very carefully!
================================================================================


================================================================================
                                       INPUT FILE
================================================================================
NAME = scf.hf.inp
|  1> ! RHF def2-TZVPD
|  2> 
|  3> %pal nprocs 4 end
|  4> 
|  5> %output Print[P_ReducedOrbPopMO_L] 1 end
|  6> 
|  7> * xyzfile 0 1 opt.xyz
|  8> 
|  9>                          ****END OF INPUT****
================================================================================

                       ****************************
                       * Single Point Calculation *
                       ****************************

---------------------------------
CARTESIAN COORDINATES (ANGSTROEM)
---------------------------------
  C      2.702600    0.689523   -0.145928
  H      3.670345    1.191912   -0.175981
  H      2.686294    0.026283    0.719168
  H      2.599061    0.087695   -1.048909
  C      1.606415    1.719310   -0.054840
  H      1.681207    2.325971    0.848839
  H      1.597548    2.391508   -0.914412
  O      0.347047    1.013989   -0.022341
  C     -0.734084    1.760161    0.086863
  O     -0.786454    2.949773    0.164472
  C     -1.993808    0.858488    0.089849
  F     -1.906614   -0.076167    1.038669
  F     -3.080715    1.580352    0.309364
  F     -2.123108    0.244631   -1.089872

----------------------------
CARTESIAN COORDINATES (A.U.)
----------------------------
  NO LB      ZA    FRAG     MASS         X           Y           Z
   0 C     6.0000    0    12.011    5.107174    1.303011   -0.275763
   1 H     1.0000    0     1.008    6.935948    2.252388   -0.332557
   2 H     1.0000    0     1.008    5.076361    0.049668    1.359030
   3 H     1.0000    0     1.008    4.911513    0.165720   -1.982151
   4 C     6.0000    0    12.011    3.035684    3.249026   -0.103632
   5 H     1.0000    0     1.008    3.177020    4.395449    1.604073
   6 H     1.0000    0     1.008    3.018929    4.519294   -1.727989
   7 O     8.0000    0    15.999    0.655823    1.916162   -0.042218
   8 C     6.0000    0    12.011   -1.387217    3.326222    0.164148
   9 O     8.0000    0    15.999   -1.486183    5.574263    0.310807
  10 C     6.0000    0    12.011   -3.767751    1.622307    0.169791
  11 F     9.0000    0    18.998   -3.602978   -0.143934    1.962800
  12 F     9.0000    0    18.998   -5.821708    2.986433    0.584613
  13 F     9.0000    0    18.998   -4.012092    0.462285   -2.059559

--------------------------------
INTERNAL COORDINATES (ANGSTROEM)
--------------------------------
 C      0   0   0     0.000000000000     0.00000000     0.00000000
 H      1   0   0     1.090792508287     0.00000000     0.00000000
 H      1   2   0     1.090203702586   108.38062614     0.00000000
 H      1   2   3     1.090088518652   108.40446712   242.22709268
 C      1   2   3     1.506778404623   109.41028889   121.05509859
 H      5   1   2     1.090993391539   112.34812579   298.81683955
 H      5   1   2     1.091234657857   112.28952852    60.91241413
 O      5   1   2     1.443794037108   107.58153879   179.80170607
 C      8   5   1     1.318158123706   116.15127605   178.56612450
 O      9   8   5     1.193290646740   127.27998865   359.82346144
 C      9   8   5     1.549170101852   109.73229289   179.30608416
 F     11   9   8     1.334706346905   110.84434478    54.46812213
 F     11   9   8     1.323118419520   110.53405632   174.84707178
 F     11   9   8     1.336144168544   110.14457596   294.76072368

---------------------------
INTERNAL COORDINATES (A.U.)
---------------------------
 C      0   0   0     0.000000000000     0.00000000     0.00000000
 H      1   0   0     2.061299109596     0.00000000     0.00000000
 H      1   2   0     2.060186428075   108.38062614     0.00000000
 H      1   2   3     2.059968761984   108.40446712   242.22709268
 C      1   2   3     2.847398529245   109.41028889   121.05509859
 H      5   1   2     2.061678723926   112.34812579   298.81683955
 H      5   1   2     2.062134651194   112.28952852    60.91241413
 O      5   1   2     2.728375323923   107.58153879   179.80170607
 C      8   5   1     2.490957855007   116.15127605   178.56612450
 O      9   8   5     2.254992520509   127.27998865   359.82346144
 C      9   8   5     2.927507227358   109.73229289   179.30608416
 F     11   9   8     2.522229464858   110.84434478    54.46812213
 F     11   9   8     2.500331455639   110.53405632   174.84707178
 F     11   9   8     2.524946553984   110.14457596   294.76072368

---------------------
BASIS SET INFORMATION
---------------------
There are 4 groups of distinct atoms

 Group   1 Type C   : 12s6p3d1f contracted to 6s3p3d1f pattern {621111/411/111/1}
 Group   2 Type H   : 5s2p contracted to 3s2p pattern {311/11}
 Group   3 Type O   : 12s7p3d1f contracted to 6s4p3d1f pattern {621111/4111/111/1}
 Group   4 Type F   : 12s7p3d1f contracted to 6s4p3d1f pattern {621111/4111/111/1}

Atom   0C    basis set group =>   1
Atom   1H    basis set group =>   2
Atom   2H    basis set group =>   2
Atom   3H    basis set group =>   2
Atom   4C    basis set group =>   1
Atom   5H    basis set group =>   2
Atom   6H    basis set group =>   2
Atom   7O    basis set group =>   3
Atom   8C    basis set group =>   1
Atom   9O    basis set group =>   3
Atom  10C    basis set group =>   1
Atom  11F    basis set group =>   4
Atom  12F    basis set group =>   4
Atom  13F    basis set group =>   4


           ************************************************************
           *        Program running with 4 parallel MPI-processes     *
           *              working on a common directory               *
           ************************************************************
------------------------------------------------------------------------------
                             ORCA STARTUP CALCULATIONS
------------------------------------------------------------------------------
------------------------------------------------------------------------------
                   ___                                                        
                  /   \      - P O W E R E D   B Y -                         
                 /     \                                                     
                 |  |  |   _    _      __       _____    __    __             
                 |  |  |  | |  | |    /  \     |  _  \  |  |  /  |          
                  \  \/   | |  | |   /    \    | | | |  |  | /  /          
                 / \  \   | |__| |  /  /\  \   | |_| |  |  |/  /          
                |  |  |   |  __  | /  /__\  \  |    /   |      \           
                |  |  |   | |  | | |   __   |  |    \   |  |\   \          
                \     /   | |  | | |  |  |  |  | |\  \  |  | \   \       
                 \___/    |_|  |_| |__|  |__|  |_| \__\ |__|  \__/        
                                                                              
                      - O R C A' S   B I G   F R I E N D -                    
                                      &                                       
                       - I N T E G R A L  F E E D E R -                       
                                                                              
 v1 FN, 2020, v2 2021, v3 2022-2024                                           
------------------------------------------------------------------------------


----------------------
SHARK INTEGRAL PACKAGE
----------------------

Number of atoms                             ...     14
Number of basis functions                   ...    393
Number of shells                            ...    147
Maximum angular momentum                    ...      3
Integral batch strategy                     ... SHARK/LIBINT Hybrid
RI-J (if used) integral strategy            ... SPLIT-RIJ (Revised 2003 algorithm where possible)
Printlevel                                  ...      1
Contraction scheme used                     ... SEGMENTED contraction
Prescreening option                         ... SCHWARTZ
   Thresh                                   ... 1.000e-10
   Tcut                                     ... 1.000e-11
   Tpresel                                  ... 1.000e-11 
Coulomb Range Separation                    ... NOT USED
Exchange Range Separation                   ... NOT USED
Multipole approximations                    ... NOT USED
Finite Nucleus Model                        ... NOT USED
CABS basis                                  ... NOT available
Auxiliary Coulomb fitting basis             ... NOT available
Auxiliary J/K fitting basis                 ... NOT available
Auxiliary Correlation fitting basis         ... NOT available
Auxiliary 'external' fitting basis          ... NOT available

Checking pre-screening integrals            ... done (  0.0 sec) Dimension = 147
Check shell pair data                       ... done (  0.0 sec)
Shell pair information
Shell pair cut-off parameter TPreSel        ...   1.0e-11
Total number of shell pairs                 ...     10878
Shell pairs after pre-screening             ...      9725
Total number of primitive shell pairs       ...     28654
Primitive shell pairs kept                  ...     19811
          la=0 lb=0:   2045 shell pairs
          la=1 lb=0:   2634 shell pairs
          la=1 lb=1:    855 shell pairs
          la=2 lb=0:   1660 shell pairs
          la=2 lb=1:   1067 shell pairs
          la=2 lb=2:    359 shell pairs
          la=3 lb=0:    511 shell pairs
          la=3 lb=1:    337 shell pairs
          la=3 lb=2:    217 shell pairs
          la=3 lb=3:     40 shell pairs

Calculating one electron integrals          ... done (  0.0 sec)
Calculating Nuclear repulsion               ... done (  0.0 sec) ENN=    501.755175243768 Eh

Diagonalization of the overlap matrix:
Smallest eigenvalue                        ... 5.807e-06
Time for diagonalization                   ...    0.023 sec
Threshold for overlap eigenvalues          ... 1.000e-07
Number of eigenvalues below threshold      ... 0
Time for construction of square roots      ...    0.011 sec
Total time needed                          ...    0.036 sec

-------------------
DFT GRID GENERATION
-------------------

General Integration Accuracy     IntAcc      ... 4.388
Radial Grid Type                 RadialGrid  ... OptM3 with GC (2021)
Angular Grid (max. ang.)         AngularGrid ... 4 (Lebedev-302)
Angular grid pruning method      GridPruning ... 4 (adaptive)
Weight generation scheme         WeightScheme... mBecke (2022)
Basis function cutoff            BFCut       ... 1.0000e-10
Integration weight cutoff        WCut        ... 1.0000e-14
Partially contracted basis set               ... off
Rotationally invariant grid construction     ... off
Angular grids for H and He will be reduced by one unit
Diffuse basis detected: some atoms will have their outermost
                        angular grid increased by 1.

Total number of grid points                  ...    74424
Total number of batches                      ...     1169
Average number of points per batch           ...       63
Average number of grid points per atom       ...     5316
Initializing property integral containers    ... done (  0.0 sec)

SHARK setup successfully completed in   0.9 seconds

Maximum memory used throughout the entire STARTUP-calculation: 32.9 MB


           ************************************************************
           *        Program running with 4 parallel MPI-processes     *
           *              working on a common directory               *
           ************************************************************
-------------------------------------------------------------------------------
                                 ORCA GUESS
                   Start orbitals & Density for SCF / CASSCF
-------------------------------------------------------------------------------

------------
SCF SETTINGS
------------
Hamiltonian:
 Ab initio Hamiltonian  Method          .... Hartree-Fock(GTOs)


General Settings:
 Integral files         IntName         .... scf.hf
 Hartree-Fock type      HFTyp           .... RHF
 Total Charge           Charge          ....    0
 Multiplicity           Mult            ....    1
 Number of Electrons    NEL             ....   72
 Basis Dimension        Dim             ....  393
 Nuclear Repulsion      ENuc            ....    501.7551752438 Eh

Convergence Acceleration:
 AO-DIIS                CNVDIIS         .... on
   Start iteration      DIISMaxIt       ....    12
   Startup error        DIISStart       ....  0.200000
   # of expansion vecs  DIISMaxEq       ....     5
   Bias factor          DIISBfac        ....   1.050
   Max. coefficient     DIISMaxC        ....  10.000
 MO-DIIS                CNVKDIIS        .... off
 Trust-Rad. Augm. Hess. CNVTRAH         .... auto
   Auto Start mean grad. ratio tolernc. ....  1.125000
   Auto Start start iteration           ....    50
   Auto Start num. interpolation iter.  ....    10
   Max. Number of Micro iterations      ....    24
   Max. Number of Macro iterations      .... Maxiter - #DIIS iter
   Number of Davidson start vectors     ....     2
   Converg. threshold    (grad. norm)   ....   5.000e-05
   Grad. Scal. Fac. for Micro threshold ....   0.100
   Minimum threshold for Micro iter.    ....   1.000e-02
   NR start threshold (gradient norm)   ....   1.000e-04
   Initial trust radius                 ....   0.400
   Minimum AH scaling param. (alpha)    ....   1.000
   Maximum AH scaling param. (alpha)    .... 1000.000
   Quad. conv. algorithm                .... NR
   White noise on init. David. guess    .... on
   Maximum white noise                  ....   0.010
   Pseudo random numbers                .... off
   Inactive MOs                         .... canonical
   Orbital update algorithm             .... Taylor
   Preconditioner                       .... Diag
   Full preconditioner red. dimension   ....   250
 SOSCF                  CNVSOSCF        .... on
   Start iteration      SOSCFMaxIt      ....   150
   Startup grad/error   SOSCFStart      ....  0.003300
   Hessian update       SOSCFHessUp     .... L-BFGS
 Level Shifting         CNVShift        .... on
   Level shift para.    LevelShift      ....    0.2500
   Turn off err/grad.   ShiftErr        ....    0.0010
 Zerner damping         CNVZerner       .... off
 Static damping         CNVDamp         .... on
   Fraction old density DampFac         ....    0.7000
   Max. Damping (<1)    DampMax         ....    0.9800
   Min. Damping (>=0)   DampMin         ....    0.0000
   Turn off err/grad.   DampErr         ....    0.1000

SCF Procedure:
 Maximum # iterations   MaxIter         ....   125
 SCF integral mode      SCFMode         .... Direct
   Integral package                     .... SHARK and LIBINT hybrid scheme
 Reset frequency        DirectResetFreq ....    20
 Integral Threshold     Thresh          ....  1.000e-10 Eh
 Primitive CutOff       TCut            ....  1.000e-11 Eh

Convergence Tolerance:
 Convergence Check Mode ConvCheckMode   .... Total+1el-Energy
 Convergence forced     ConvForced      .... 0
 Energy Change          TolE            ....  1.000e-06 Eh
 1-El. energy change                    ....  1.000e-03 Eh
 Orbital Gradient       TolG            ....  5.000e-05
 Orbital Rotation angle TolX            ....  5.000e-05
 DIIS Error             TolErr          ....  1.000e-06

------------------------------
INITIAL GUESS: MODEL POTENTIAL
------------------------------
Loading Hartree-Fock densities                     ... done
Calculating cut-offs                               ... done
Initializing the effective Hamiltonian             ... done
Setting up the integral package (SHARK)            ... done
Starting the Coulomb interaction                   ... done (   0.2 sec)
Making the grid                                    ... done (   0.2 sec)
Mapping shells                                     ... done
Starting the XC term evaluation                    ... done (   0.1 sec)
Transforming the Hamiltonian                       ... done (   0.0 sec)
Diagonalizing the Hamiltonian                      ... done (   0.0 sec)
Back transforming the eigenvectors                 ... done (   0.0 sec)
Now organizing SCF variables                       ... done
                      ------------------
                      INITIAL GUESS DONE (   0.5 sec)
                      ------------------
             **** ENERGY FILE WAS UPDATED (scf.hf.en.tmp) ****
Finished Guess after   0.8 sec
Maximum memory used throughout the entire GUESS-calculation: 24.3 MB


           ************************************************************
           *        Program running with 4 parallel MPI-processes     *
           *              working on a common directory               *
           ************************************************************

-------------------------------------------------------------------------------------------
                                      ORCA LEAN-SCF
                              memory conserving SCF solver
-------------------------------------------------------------------------------------------

----------------------------------------D-I-I-S--------------------------------------------
Iteration    Energy (Eh)           Delta-E    RMSDP     MaxDP     DIISErr   Damp  Time(sec)
-------------------------------------------------------------------------------------------
               ***  Starting incremental Fock matrix formation  ***
    1    -602.3683618240523856     0.00e+00  1.63e-03  1.02e-01  3.47e-01  0.700  20.3
    2    -602.4835488170555209    -1.15e-01  1.24e-03  8.03e-02  2.53e-01  0.700  19.2
                               ***Turning on AO-DIIS***
    3    -602.5516733134267042    -6.81e-02  9.26e-04  7.16e-02  1.83e-01  0.700  19.0
    4    -602.5958513512574655    -4.42e-02  7.02e-04  5.29e-02  1.29e-01  0.700  18.8
    5    -602.6266019234650457    -3.08e-02  5.36e-04  3.76e-02  9.03e-02  0.700  18.7
    6    -602.6483584589853990    -2.18e-02  1.34e-03  8.81e-02  6.33e-02  0.000  18.4
    7    -602.7000491804263902    -5.17e-02  9.69e-05  8.89e-03  3.43e-03  0.000  18.9
                              *** Initializing SOSCF ***
---------------------------------------S-O-S-C-F--------------------------------------
Iteration    Energy (Eh)           Delta-E    RMSDP     MaxDP     MaxGrad    Time(sec)
--------------------------------------------------------------------------------------
    8    -602.7001467541462034    -9.76e-05  4.80e-05  4.14e-03  2.29e-03    17.1
               *** Restarting incremental Fock matrix formation ***
    9    -602.7001803132480973    -3.36e-05  2.06e-05  1.74e-03  3.99e-04    20.2
   10    -602.7001898714883055    -9.56e-06  2.15e-05  1.07e-03  3.26e-04    15.9
   11    -602.7001941281149584    -4.26e-06  4.17e-06  2.03e-04  6.63e-05    16.0
   12    -602.7001944019613120    -2.74e-07  2.51e-06  1.70e-04  2.04e-05    14.5
                 **** Energy Check signals convergence ****

               *****************************************************
               *                     SUCCESS                       *
               *           SCF CONVERGED AFTER  12 CYCLES          *
               *****************************************************

             **** ENERGY FILE WAS UPDATED (scf.hf.en.tmp) ****

----------------
TOTAL SCF ENERGY
----------------

Total Energy       :       -602.70019440196131 Eh          -16400.30607 eV

Components:
Nuclear Repulsion  :        501.75517524376812 Eh           13653.45245 eV
Electronic Energy  :      -1104.45536964572943 Eh          -30053.75851 eV
One Electron Energy:      -1829.91861928848289 Eh          -49794.61714 eV
Two Electron Energy:        725.46324964275345 Eh           19740.85863 eV

Virial components:
Potential Energy   :      -1204.83800033405350 Eh          -32785.30876 eV
Kinetic Energy     :        602.13780593209208 Eh           16385.00270 eV
Virial Ratio       :          2.00093398631398

---------------
SCF CONVERGENCE
---------------

  Last Energy change         ...    2.7385e-07  Tolerance :   1.0000e-06
  Last MAX-Density change    ...    1.7046e-04  Tolerance :   1.0000e-05
  Last RMS-Density change    ...    2.5137e-06  Tolerance :   1.0000e-06
  Last DIIS Error            ...    2.2891e-03  Tolerance :   1.0000e-06
  Last Orbital Gradient      ...    2.0362e-05  Tolerance :   5.0000e-05
  Last Orbital Rotation      ...    2.9541e-05  Tolerance :   5.0000e-05


----------------
ORBITAL ENERGIES
----------------

  NO   OCC          E(Eh)            E(eV) 
   0   2.0000     -26.352872      -717.0981 
   1   2.0000     -26.352617      -717.0912 
   2   2.0000     -26.350180      -717.0249 
   3   2.0000     -20.635536      -561.5215 
   4   2.0000     -20.584217      -560.1250 
   5   2.0000     -11.527357      -313.6753 
   6   2.0000     -11.419817      -310.7490 
   7   2.0000     -11.312195      -307.8205 
   8   2.0000     -11.239521      -305.8429 
   9   2.0000      -1.748800       -47.5873 
  10   2.0000      -1.651522       -44.9402 
  11   2.0000      -1.651129       -44.9295 
  12   2.0000      -1.504043       -40.9271 
  13   2.0000      -1.405127       -38.2355 
  14   2.0000      -1.080772       -29.4093 
  15   2.0000      -1.018141       -27.7050 
  16   2.0000      -0.915949       -24.9242 
  17   2.0000      -0.860352       -23.4114 
  18   2.0000      -0.842071       -22.9139 
  19   2.0000      -0.838603       -22.8196 
  20   2.0000      -0.803009       -21.8510 
  21   2.0000      -0.731920       -19.9166 
  22   2.0000      -0.727240       -19.7892 
  23   2.0000      -0.710997       -19.3472 
  24   2.0000      -0.706645       -19.2288 
  25   2.0000      -0.679191       -18.4817 
  26   2.0000      -0.678997       -18.4765 
  27   2.0000      -0.677159       -18.4264 
  28   2.0000      -0.663110       -18.0441 
  29   2.0000      -0.611366       -16.6361 
  30   2.0000      -0.591943       -16.1076 
  31   2.0000      -0.570412       -15.5217 
  32   2.0000      -0.538323       -14.6485 
  33   2.0000      -0.536007       -14.5855 
  34   2.0000      -0.490092       -13.3361 
  35   2.0000      -0.488826       -13.3016 
  36   0.0000       0.058500         1.5919 
  37   0.0000       0.077856         2.1186 
  38   0.0000       0.083373         2.2687 
  39   0.0000       0.090740         2.4692 
  40   0.0000       0.104570         2.8455 
  41   0.0000       0.110327         3.0022 
  42   0.0000       0.124233         3.3805 
  43   0.0000       0.126382         3.4390 
  44   0.0000       0.132452         3.6042 
  45   0.0000       0.138879         3.7791 
  46   0.0000       0.140226         3.8157 
*Only the first 10 virtual orbitals were printed.

                    ********************************
                    * MULLIKEN POPULATION ANALYSIS *
                    ********************************

-----------------------
MULLIKEN ATOMIC CHARGES
-----------------------
   0 C :   -0.657428
   1 H :    0.200099
   2 H :    0.166672
   3 H :    0.169339
   4 C :    0.096156
   5 H :    0.191200
   6 H :    0.193985
   7 O :   -0.269857
   8 C :    0.538411
   9 O :   -0.556820
  10 C :    0.779814
  11 F :   -0.288119
  12 F :   -0.273015
  13 F :   -0.290439
Sum of atomic charges:    0.0000000

--------------------------------
MULLIKEN REDUCED ORBITAL CHARGES
--------------------------------
  0 C s       :     3.149615  s :     3.149615
      pz      :     1.210372  p :     3.429397
      px      :     1.102652
      py      :     1.116373
      dz2     :     0.026682  d :     0.073710
      dxz     :    -0.013102
      dyz     :     0.028762
      dx2y2   :     0.006245
      dxy     :     0.025123
      f0      :     0.000323  f :     0.004706
      f+1     :     0.000331
      f-1     :     0.001541
      f+2     :     0.000099
      f-2     :     0.000549
      f+3     :     0.000653
      f-3     :     0.001210

  1 H s       :     0.753683  s :     0.753683
      pz      :     0.009187  p :     0.046218
      px      :     0.028648
      py      :     0.008383

  2 H s       :     0.783592  s :     0.783592
      pz      :     0.025751  p :     0.049736
      px      :     0.006050
      py      :     0.017935

  3 H s       :     0.782146  s :     0.782146
      pz      :     0.027398  p :     0.048515
      px      :     0.005101
      py      :     0.016017

  4 C s       :     3.098811  s :     3.098811
      pz      :     1.114234  p :     2.704096
      px      :     0.649087
      py      :     0.940775
      dz2     :     0.011387  d :     0.089680
      dxz     :    -0.020835
      dyz     :     0.066441
      dx2y2   :     0.011522
      dxy     :     0.021165
      f0      :     0.001254  f :     0.011257
      f+1     :     0.000922
      f-1     :     0.001751
      f+2     :     0.000711
      f-2     :     0.001579
      f+3     :     0.002537
      f-3     :     0.002504

  5 H s       :     0.780553  s :     0.780553
      pz      :     0.015343  p :     0.028247
      px      :     0.011374
      py      :     0.001530

  6 H s       :     0.778678  s :     0.778678
      pz      :     0.013419  p :     0.027337
      px      :     0.010155
      py      :     0.003762

  7 O s       :     3.797358  s :     3.797358
      pz      :     1.773407  p :     4.478665
      px      :     1.152409
      py      :     1.552849
      dz2     :    -0.003184  d :    -0.008466
      dxz     :     0.001709
      dyz     :    -0.000468
      dx2y2   :    -0.025905
      dxy     :     0.019381
      f0      :     0.000297  f :     0.002301
      f+1     :     0.000460
      f-1     :     0.000195
      f+2     :     0.000091
      f-2     :     0.000253
      f+3     :     0.000393
      f-3     :     0.000612

  8 C s       :     3.011849  s :     3.011849
      pz      :     0.647076  p :     2.056548
      px      :     0.721960
      py      :     0.687513
      dz2     :     0.012449  d :     0.365591
      dxz     :     0.053152
      dyz     :     0.084094
      dx2y2   :     0.085121
      dxy     :     0.130776
      f0      :     0.003298  f :     0.027601
      f+1     :     0.001548
      f-1     :     0.001773
      f+2     :     0.003320
      f-2     :     0.002704
      f+3     :     0.010194
      f-3     :     0.004763

  9 O s       :     3.943709  s :     3.943709
      pz      :     1.412377  p :     4.564644
      px      :     1.838097
      py      :     1.314169
      dz2     :     0.003914  d :     0.046160
      dxz     :    -0.001314
      dyz     :     0.018679
      dx2y2   :     0.015655
      dxy     :     0.009228
      f0      :     0.000222  f :     0.002306
      f+1     :     0.000019
      f-1     :     0.000262
      f+2     :     0.000563
      f-2     :     0.000018
      f+3     :     0.000588
      f-3     :     0.000634

 10 C s       :     3.152094  s :     3.152094
      pz      :     0.454762  p :     1.588132
      px      :     0.610961
      py      :     0.522408
      dz2     :     0.101671  d :     0.436015
      dxz     :     0.072762
      dyz     :     0.075703
      dx2y2   :     0.075955
      dxy     :     0.109924
      f0      :     0.008126  f :     0.043945
      f+1     :     0.005611
      f-1     :     0.006781
      f+2     :     0.005054
      f-2     :     0.007940
      f+3     :     0.006322
      f-3     :     0.004112

 11 F s       :     3.982459  s :     3.982459
      pz      :     1.676704  p :     5.294329
      px      :     1.936880
      py      :     1.680744
      dz2     :    -0.001176  d :     0.010528
      dxz     :     0.000876
      dyz     :     0.008657
      dx2y2   :     0.003332
      dxy     :    -0.001162
      f0      :     0.000087  f :     0.000802
      f+1     :     0.000025
      f-1     :     0.000263
      f+2     :     0.000224
      f-2     :     0.000105
      f+3     :     0.000045
      f-3     :     0.000052

 12 F s       :     3.988247  s :     3.988247
      pz      :     1.915365  p :     5.275838
      px      :     1.577329
      py      :     1.783144
      dz2     :     0.001099  d :     0.008083
      dxz     :     0.001062
      dyz     :    -0.001859
      dx2y2   :     0.001029
      dxy     :     0.006752
      f0      :     0.000071  f :     0.000847
      f+1     :     0.000116
      f-1     :     0.000060
      f+2     :     0.000029
      f-2     :     0.000118
      f+3     :     0.000167
      f-3     :     0.000286

 13 F s       :     3.982219  s :     3.982219
      pz      :     1.537684  p :     5.296993
      px      :     1.932505
      py      :     1.826804
      dz2     :     0.003804  d :     0.010431
      dxz     :     0.001016
      dyz     :     0.005398
      dx2y2   :     0.001251
      dxy     :    -0.001038
      f0      :     0.000190  f :     0.000797
      f+1     :     0.000086
      f-1     :     0.000327
      f+2     :     0.000093
      f-2     :     0.000081
      f+3     :     0.000011
      f-3     :     0.000009



                     *******************************
                     * LOEWDIN POPULATION ANALYSIS *
                     *******************************

----------------------
LOEWDIN ATOMIC CHARGES
----------------------
   0 C :   -0.050574
   1 H :    0.076863
   2 H :    0.078041
   3 H :    0.077908
   4 C :   -0.164903
   5 H :    0.126320
   6 H :    0.127030
   7 O :   -0.013447
   8 C :   -0.335848
   9 O :    0.129314
  10 C :   -0.439649
  11 F :    0.126544
  12 F :    0.136685
  13 F :    0.125718

-------------------------------
LOEWDIN REDUCED ORBITAL CHARGES
-------------------------------
  0 C s       :     2.722568  s :     2.722568
      pz      :     0.967016  p :     2.858357
      px      :     0.937849
      py      :     0.953492
      dz2     :     0.065668  d :     0.442544
      dxz     :     0.038077
      dyz     :     0.141204
      dx2y2   :     0.089557
      dxy     :     0.108039
      f0      :     0.002398  f :     0.027105
      f+1     :     0.003115
      f-1     :     0.005013
      f+2     :     0.002624
      f-2     :     0.003921
      f+3     :     0.004115
      f-3     :     0.005920

  1 H s       :     0.711567  s :     0.711567
      pz      :     0.055613  p :     0.211570
      px      :     0.092810
      py      :     0.063148

  2 H s       :     0.710762  s :     0.710762
      pz      :     0.089556  p :     0.211198
      px      :     0.051416
      py      :     0.070225

  3 H s       :     0.710811  s :     0.710811
      pz      :     0.092399  p :     0.211281
      px      :     0.052266
      py      :     0.066615

  4 C s       :     2.667859  s :     2.667859
      pz      :     0.944313  p :     2.577152
      px      :     0.738104
      py      :     0.894735
      dz2     :     0.098339  d :     0.847818
      dxz     :     0.120732
      dyz     :     0.202597
      dx2y2   :     0.199602
      dxy     :     0.226548
      f0      :     0.007554  f :     0.072075
      f+1     :     0.007365
      f-1     :     0.006939
      f+2     :     0.006464
      f-2     :     0.009422
      f+3     :     0.017196
      f-3     :     0.017135

  5 H s       :     0.683896  s :     0.683896
      pz      :     0.087380  p :     0.189784
      px      :     0.043645
      py      :     0.058759

  6 H s       :     0.684905  s :     0.684905
      pz      :     0.083794  p :     0.188065
      px      :     0.041737
      py      :     0.062535

  7 O s       :     3.160121  s :     3.160121
      pz      :     1.538346  p :     4.329766
      px      :     1.275566
      py      :     1.515854
      dz2     :     0.053240  d :     0.516784
      dxz     :     0.099338
      dyz     :     0.051995
      dx2y2   :     0.151909
      dxy     :     0.160303
      f0      :     0.000563  f :     0.006776
      f+1     :     0.000862
      f-1     :     0.000327
      f+2     :     0.000112
      f-2     :     0.001054
      f+3     :     0.002240
      f-3     :     0.001618

  8 C s       :     2.604898  s :     2.604898
      pz      :     0.570528  p :     2.257640
      px      :     0.786130
      py      :     0.900982
      dz2     :     0.111204  d :     1.309176
      dxz     :     0.127409
      dyz     :     0.250733
      dx2y2   :     0.336253
      dxy     :     0.483578
      f0      :     0.012524  f :     0.164135
      f+1     :     0.008677
      f-1     :     0.012749
      f+2     :     0.021381
      f-2     :     0.015500
      f+3     :     0.064756
      f-3     :     0.028547

  9 O s       :     3.309825  s :     3.309825
      pz      :     1.262385  p :     4.331811
      px      :     1.587513
      py      :     1.481913
      dz2     :     0.029884  d :     0.222795
      dxz     :     0.005395
      dyz     :     0.036482
      dx2y2   :     0.076599
      dxy     :     0.074436
      f0      :     0.000404  f :     0.006255
      f+1     :     0.000111
      f-1     :     0.001000
      f+2     :     0.000817
      f-2     :     0.000074
      f+3     :     0.001865
      f-3     :     0.001984

 10 C s       :     2.559071  s :     2.559071
      pz      :     0.653690  p :     2.110725
      px      :     0.753902
      py      :     0.703132
      dz2     :     0.333298  d :     1.494611
      dxz     :     0.232022
      dyz     :     0.342264
      dx2y2   :     0.254135
      dxy     :     0.332892
      f0      :     0.046541  f :     0.275243
      f+1     :     0.034614
      f-1     :     0.048684
      f+2     :     0.037184
      f-2     :     0.044669
      f+3     :     0.035181
      f-3     :     0.028369

 11 F s       :     3.535268  s :     3.535268
      pz      :     1.664510  p :     5.137197
      px      :     1.803719
      py      :     1.668968
      dz2     :     0.054709  d :     0.199365
      dxz     :     0.025135
      dyz     :     0.052078
      dx2y2   :     0.026111
      dxy     :     0.041333
      f0      :     0.000227  f :     0.001625
      f+1     :     0.000050
      f-1     :     0.000464
      f+2     :     0.000394
      f-2     :     0.000268
      f+3     :     0.000129
      f-3     :     0.000092

 12 F s       :     3.526502  s :     3.526502
      pz      :     1.785929  p :     5.127570
      px      :     1.620055
      py      :     1.721587
      dz2     :     0.025371  d :     0.207531
      dxz     :     0.031248
      dyz     :     0.032509
      dx2y2   :     0.057979
      dxy     :     0.060424
      f0      :     0.000150  f :     0.001712
      f+1     :     0.000227
      f-1     :     0.000112
      f+2     :     0.000050
      f-2     :     0.000262
      f+3     :     0.000428
      f-3     :     0.000482

 13 F s       :     3.536631  s :     3.536631
      pz      :     1.592316  p :     5.138656
      px      :     1.801801
      py      :     1.744539
      dz2     :     0.060302  d :     0.197382
      dxz     :     0.041029
      dyz     :     0.059797
      dx2y2   :     0.011058
      dxy     :     0.025195
      f0      :     0.000420  f :     0.001614
      f+1     :     0.000194
      f-1     :     0.000554
      f+2     :     0.000172
      f-2     :     0.000225
      f+3     :     0.000034
      f-3     :     0.000015


------------------------------------------
LOEWDIN REDUCED ORBITAL POPULATIONS PER MO
-------------------------------------------
THRESHOLD FOR PRINTING IS 0.1%%
                      0         1         2         3         4         5   
                 -26.35287 -26.35262 -26.35018 -20.63554 -20.58422 -11.52736
                   2.00000   2.00000   2.00000   2.00000   2.00000   2.00000
                  --------  --------  --------  --------  --------  --------
 7 O  s               0.0       0.0       0.0      99.6       0.0       0.0
 8 C  dx2y2           0.0       0.0       0.0       0.0       0.1       0.0
 8 C  dxy             0.0       0.0       0.0       0.1       0.0       0.1
 9 O  s               0.0       0.0       0.0       0.0      99.5       0.0
10 C  s               0.0       0.0       0.0       0.0       0.0      98.5
11 F  s               0.1      99.7       0.0       0.0       0.0       0.0
11 F  dyz             0.0       0.0       0.0       0.0       0.0       0.2
12 F  s               0.0       0.0      99.8       0.0       0.0       0.0
12 F  dxy             0.0       0.0       0.0       0.0       0.0       0.2
13 F  s              99.7       0.1       0.0       0.0       0.0       0.0
13 F  pz              0.0       0.0       0.0       0.0       0.0       0.1
13 F  dz2             0.0       0.0       0.0       0.0       0.0       0.1
13 F  dyz             0.0       0.0       0.0       0.0       0.0       0.1

                      6         7         8         9        10        11   
                 -11.41982 -11.31219 -11.23952  -1.74880  -1.65152  -1.65113
                   2.00000   2.00000   2.00000   2.00000   2.00000   2.00000
                  --------  --------  --------  --------  --------  --------
 0 C  s               0.0       0.0      99.2       0.0       0.0       0.0
 0 C  dxy             0.0       0.2       0.0       0.0       0.0       0.0
 4 C  s               0.0      99.0       0.0       0.0       0.0       0.0
 4 C  dxy             0.0       0.0       0.2       0.0       0.0       0.0
 7 O  s               0.0       0.0       0.0       0.2       0.0       0.0
 7 O  px              0.1       0.1       0.0       0.8       0.0       0.0
 7 O  dx2y2           0.0       0.0       0.0       0.2       0.1       0.0
 7 O  dxy             0.2       0.1       0.0       0.0       0.1       0.0
 8 C  s              98.5       0.0       0.0       1.1       0.0       0.0
 8 C  pz              0.0       0.0       0.0       0.0       0.0       0.2
 8 C  px              0.0       0.0       0.0       1.0       0.1       0.0
 8 C  py              0.0       0.0       0.0       0.5       0.2       0.0
 8 C  dz2             0.0       0.0       0.0       0.6       0.0       0.0
 8 C  dxz             0.0       0.0       0.0       0.0       0.0       0.6
 8 C  dyz             0.0       0.0       0.0       0.0       0.0       0.7
 8 C  dx2y2           0.0       0.0       0.0       0.1       1.0       0.0
 8 C  dxy             0.0       0.0       0.0       1.3       0.2       0.0
 9 O  s               0.0       0.0       0.0       0.1       0.0       0.0
 9 O  px              0.0       0.0       0.0       0.2       0.1       0.0
 9 O  py              0.2       0.0       0.0       0.5       0.0       0.0
 9 O  dz2             0.1       0.0       0.0       0.1       0.0       0.0
 9 O  dx2y2           0.3       0.0       0.0       0.0       0.0       0.0
 9 O  dxy             0.0       0.0       0.0       0.1       0.1       0.0
10 C  s               0.0       0.0       0.0      12.9       0.0       0.0
10 C  pz              0.0       0.0       0.0       0.0       0.2      13.3
10 C  px              0.0       0.0       0.0       1.8       4.6       0.1
10 C  py              0.0       0.0       0.0       0.8       9.0       0.1
10 C  dz2             0.0       0.0       0.0       0.3       3.9       0.8
10 C  dxz             0.0       0.0       0.0       0.0       0.6       0.0
10 C  dyz             0.0       0.0       0.0       0.0       0.5       8.6
10 C  dx2y2           0.0       0.0       0.0       0.1       1.9       0.1
10 C  dxy             0.1       0.0       0.0       1.1       2.8       0.2
10 C  f0              0.0       0.0       0.0       0.3       0.0       0.0
10 C  f+1             0.0       0.0       0.0       0.0       0.2       0.0
10 C  f-1             0.0       0.0       0.0       1.3       0.2       0.0
10 C  f+2             0.0       0.0       0.0       0.0       0.1       0.6
10 C  f-2             0.0       0.0       0.0       0.1       0.0       0.0
10 C  f-3             0.0       0.0       0.0       0.5       0.3       0.0
11 F  s               0.0       0.0       0.0      20.7      14.8      32.1
11 F  pz              0.0       0.0       0.0       1.4       0.2       0.3
11 F  px              0.0       0.0       0.0       0.1       0.2       0.0
11 F  py              0.0       0.0       0.0       1.0       0.2       0.2
11 F  dz2             0.0       0.0       0.0       0.2       0.5       0.5
11 F  dxz             0.0       0.0       0.0       0.1       0.1       0.0
11 F  dyz             0.0       0.0       0.0       0.7       0.0       0.0
11 F  dxy             0.0       0.0       0.0       0.2       0.3       0.0
12 F  s               0.0       0.0       0.0      21.4      45.3       0.2
12 F  pz              0.0       0.0       0.0       0.1       0.0       0.6
12 F  px              0.0       0.0       0.0       1.2       0.3       0.0
12 F  py              0.0       0.0       0.0       1.2       0.3       0.0
12 F  dz2             0.0       0.0       0.0       0.2       0.0       0.1
12 F  dxz             0.0       0.0       0.0       0.0       0.0       0.6
12 F  dyz             0.0       0.0       0.0       0.0       0.0       0.6
12 F  dxy             0.0       0.0       0.0       1.0       0.2       0.0
13 F  s               0.0       0.0       0.0      20.5       9.4      37.7
13 F  pz              0.0       0.0       0.0       2.1       0.1       0.4
13 F  px              0.0       0.0       0.0       0.0       0.2       0.0
13 F  py              0.0       0.0       0.0       0.3       0.3       0.2
13 F  dz2             0.0       0.0       0.0       0.8       0.2       0.4
13 F  dxz             0.0       0.0       0.0       0.0       0.3       0.0
13 F  dyz             0.0       0.0       0.0       0.4       0.4       0.1
13 F  dxy             0.0       0.0       0.0       0.0       0.1       0.0

                     12        13        14        15        16        17   
                  -1.50404  -1.40513  -1.08077  -1.01814  -0.91595  -0.86035
                   2.00000   2.00000   2.00000   2.00000   2.00000   2.00000
                  --------  --------  --------  --------  --------  --------
 0 C  s               0.2       0.2      12.6       8.0       8.7       5.3
 0 C  px              0.4       0.3       1.1       0.0       1.2       1.6
 0 C  py              0.0       0.0       1.0       0.2       0.4       2.2
 0 C  dz2             0.2       0.1       0.3       0.0       0.1       0.3
 0 C  dx2y2           0.4       0.3       0.0       0.0       0.1       0.1
 0 C  dxy             0.3       0.1       0.7       0.1       0.4       0.9
 1 H  s               0.0       0.0       2.3       2.0       3.4       2.2
 1 H  px              0.0       0.0       1.7       0.8       0.4       0.1
 1 H  py              0.0       0.0       0.1       0.1       0.4       0.6
 2 H  s               0.0       0.0       2.3       1.7       2.8       2.6
 2 H  pz              0.0       0.0       0.7       0.5       0.6       0.5
 2 H  px              0.1       0.1       0.1       0.0       0.1       0.1
 2 H  py              0.0       0.0       0.9       0.4       0.2       0.1
 3 H  s               0.0       0.0       2.3       1.7       2.8       2.6
 3 H  pz              0.0       0.0       0.9       0.5       0.6       0.5
 3 H  px              0.1       0.1       0.0       0.0       0.2       0.2
 3 H  py              0.0       0.0       0.8       0.3       0.1       0.0
 4 C  s               2.9       1.4      15.1       2.5       1.7       5.7
 4 C  px              3.4       1.3       1.2       2.9       3.8       0.4
 4 C  py              0.5       0.7       0.8       0.2       0.7       3.1
 4 C  dz2             1.0       0.3       0.1       0.1       0.4       0.8
 4 C  dx2y2           1.5       0.3       0.2       0.1       0.2       0.1
 4 C  dxy             0.8       1.4       1.1       1.0       1.4       0.6
 4 C  f-1             0.0       0.0       0.1       0.0       0.0       0.0
 4 C  f-3             0.2       0.2       0.1       0.0       0.0       0.0
 5 H  s               0.3       0.1       2.7       0.5       0.6       3.1
 5 H  pz              0.3       0.1       1.0       0.2       0.1       0.5
 5 H  px              0.6       0.0       0.1       0.2       0.2       0.0
 5 H  py              0.2       0.2       0.7       0.2       0.1       0.1
 6 H  s               0.3       0.1       2.7       0.5       0.6       3.1
 6 H  pz              0.3       0.0       0.8       0.1       0.1       0.5
 6 H  px              0.5       0.0       0.1       0.2       0.2       0.0
 6 H  py              0.2       0.2       0.9       0.2       0.1       0.1
 7 O  s              29.1      17.8       0.3       1.5       0.2       0.9
 7 O  px              0.5       0.5      15.0       0.2       9.8       2.8
 7 O  py              2.2       0.4       0.2       0.1       0.4       1.0
 7 O  dz2             0.7       0.1       0.2       0.5       0.0       0.2
 7 O  dx2y2           0.0       0.4       0.1       2.2       0.6       0.2
 7 O  dxy             0.6       1.2       1.0       0.0       0.8       1.0
 8 C  s              14.5       2.1       3.0       1.2       2.5       0.5
 8 C  pz              0.0       0.1       0.0       0.0       0.0       0.0
 8 C  px              3.5       3.5       0.5       5.6       0.2       4.7
 8 C  py              0.4      19.2       4.9       1.8       2.2       0.1
 8 C  dz2             2.4       0.1       0.2       0.0       0.2       0.0
 8 C  dx2y2           0.2       5.3       0.4       0.4       0.2       1.5
 8 C  dxy             2.1       1.0       0.0       1.4       0.1       0.6
 8 C  f+1             0.1       0.1       0.0       0.1       0.0       0.0
 8 C  f-1             0.0       0.4       0.1       0.0       0.0       0.0
 8 C  f-3             1.1       0.0       0.0       0.0       0.0       0.0
 9 O  s              14.3      33.5       1.3       0.8       0.6       0.8
 9 O  px              0.4       0.2       0.3       0.7       0.2       0.9
 9 O  py              3.5       2.5       0.6       0.5       0.9       0.9
 9 O  dz2             0.4       0.1       0.1       0.1       0.0       0.1
 9 O  dx2y2           0.7       0.2       0.6       0.2       0.3       0.0
 9 O  dxy             0.5       0.3       0.1       0.5       0.1       0.2
10 C  s               0.5       0.0       2.4      10.0       1.8       0.1
10 C  px              1.5       0.0       2.2       1.9       6.0       3.4
10 C  py              0.6       0.4       0.6       1.0       1.9       7.5
10 C  dz2             0.8       0.0       0.2       0.1       0.0       0.6
10 C  dx2y2           0.4       1.2       0.4       0.0       0.1       0.2
10 C  dxy             1.1       0.7       0.2       0.6       0.3       0.0
11 F  s               0.2       0.0       0.8       3.1       1.0       0.5
11 F  pz              0.0       0.0       0.7       4.1       4.7       7.7
11 F  px              0.3       0.0       0.2       0.1       3.5       3.3
11 F  py              0.2       0.0       1.1       5.7       1.6       0.1
11 F  dz2             0.0       0.0       0.0       0.0       0.1       0.1
11 F  dxz             0.1       0.0       0.1       0.0       0.3       0.1
11 F  dyz             0.0       0.0       0.3       0.7       0.1       0.1
11 F  dx2y2           0.0       0.0       0.1       0.3       0.0       0.2
11 F  dxy             0.1       0.0       0.1       0.1       0.2       0.1
12 F  s               0.1       0.1       0.5       3.3       1.7       0.0
12 F  pz              0.0       0.0       0.0       0.2       0.4       0.0
12 F  px              0.4       0.2       1.3       8.8       2.9       3.6
12 F  py              0.0       0.1       0.0       1.5       9.0       5.1
12 F  dz2             0.0       0.0       0.1       0.3       0.0       0.0
12 F  dx2y2           0.1       0.1       0.2       0.6       0.2       0.6
12 F  dxy             0.0       0.1       0.1       0.3       0.3       0.1
13 F  s               0.2       0.0       0.8       3.1       1.1       0.4
13 F  pz              0.1       0.0       1.0       6.5       7.7       7.8
13 F  px              0.3       0.0       0.4       0.7       1.8       1.7
13 F  py              0.2       0.0       0.6       2.9       0.3       1.0
13 F  dz2             0.0       0.0       0.0       0.2       0.3       0.2
13 F  dxz             0.1       0.0       0.2       0.2       0.2       0.1
13 F  dyz             0.0       0.0       0.2       0.6       0.0       0.1
13 F  dxy             0.0       0.0       0.1       0.1       0.1       0.1

                     18        19        20        21        22        23   
                  -0.84207  -0.83860  -0.80301  -0.73192  -0.72724  -0.71100
                   2.00000   2.00000   2.00000   2.00000   2.00000   2.00000
                  --------  --------  --------  --------  --------  --------
 0 C  s               0.0       0.7       0.0       0.0       0.0       0.0
 0 C  pz              0.0       0.0       0.0       0.9       0.0       0.1
 0 C  px              0.0       0.2       0.5       0.0       0.0       0.3
 0 C  py              0.0       0.6       1.2       0.0       0.1       0.8
 0 C  dxz             0.0       0.0       0.0       0.2       0.0       0.0
 0 C  dx2y2           0.0       0.1       0.8       0.0       0.0       0.1
 0 C  dxy             0.0       0.2       0.3       0.0       0.0       0.0
 1 H  s               0.0       0.2       0.3       0.0       0.0       0.3
 1 H  py              0.0       0.1       0.1       0.0       0.0       0.1
 2 H  s               0.0       0.4       0.1       0.1       0.0       0.2
 2 H  px              0.0       0.0       0.1       0.0       0.0       0.0
 3 H  s               0.0       0.4       0.1       0.2       0.0       0.0
 4 C  s               0.0       1.4       1.5       0.0       0.1       0.3
 4 C  pz              0.0       0.0       0.0       4.2       0.0       0.2
 4 C  px              0.0       0.0       1.4       0.0       0.1       1.4
 4 C  py              0.0       1.4       9.4       0.0       0.3       3.1
 4 C  dz2             0.0       0.2       0.5       0.0       0.0       0.1
 4 C  dxz             0.0       0.0       0.0       0.3       0.0       0.0
 4 C  dx2y2           0.0       0.0       0.4       0.0       0.0       0.0
 4 C  dxy             0.0       0.0       1.3       0.0       0.0       0.1
 4 C  f+3             0.0       0.0       0.2       0.0       0.0       0.0
 5 H  s               0.0       1.0       2.9       1.1       0.1       0.5
 5 H  pz              0.0       0.2       0.5       0.1       0.0       0.1
 5 H  py              0.0       0.0       0.1       0.1       0.0       0.1
 6 H  s               0.0       1.0       2.8       0.8       0.1       1.4
 6 H  pz              0.0       0.2       0.5       0.1       0.0       0.1
 7 O  s               0.0       0.6       4.3       0.0       0.0       0.0
 7 O  pz              0.3       0.0       0.2      10.5       0.0       0.3
 7 O  px              0.0       0.0      14.1       0.0       0.5       6.7
 7 O  py              0.0       0.4      17.0       0.1       0.3       0.4
 7 O  dz2             0.0       0.1       0.2       0.0       0.0       0.0
 7 O  dx2y2           0.0       0.0       0.1       0.0       0.0       0.1
 7 O  dxy             0.0       0.6       0.5       0.0       0.1       0.6
 8 C  s               0.0       0.0       2.9       0.0       0.8       1.6
 8 C  pz              0.9       0.0       0.0       4.0       0.1       0.2
 8 C  px              0.0       0.0       6.4       0.0       0.3       1.2
 8 C  py              0.0       0.1       0.1       0.1       1.2       5.8
 8 C  dz2             0.0       0.1       0.5       0.1       0.0       0.7
 8 C  dxz             0.3       0.0       0.0       0.6       0.0       0.0
 8 C  dyz             0.2       0.0       0.0       0.2       0.0       0.1
 8 C  dx2y2           0.0       0.3       0.9       0.0       1.0       1.8
 8 C  dxy             0.0       0.4       1.7       0.0       0.1       0.1
 8 C  f0              0.1       0.0       0.0       0.1       0.0       0.0
 8 C  f+3             0.0       0.1       0.0       0.0       0.0       0.2
 9 O  s               0.0       0.0       2.5       0.0       3.1       7.4
 9 O  pz              0.3       0.0       0.1       2.1       0.0       0.0
 9 O  px              0.0       0.1       4.3       0.0       0.5       0.2
 9 O  py              0.0       0.0       4.7       0.1      11.2      34.8
 9 O  dz2             0.0       0.0       0.1       0.0       0.0       0.1
 9 O  dyz             0.1       0.0       0.0       0.3       0.0       0.0
 9 O  dx2y2           0.0       0.0       0.1       0.0       0.1       0.4
 9 O  dxy             0.0       0.0       0.6       0.0       0.0       0.0
10 C  s               0.0       0.0       0.1       0.0       0.0       0.0
10 C  pz             15.7       0.1       0.0       0.3       0.0       0.0
10 C  px              0.0       6.6       1.0       0.0       0.1       0.5
10 C  py              0.1       7.2       0.1       0.0       0.5       0.5
10 C  dz2             0.4       1.3       0.0       0.3       3.9       0.5
10 C  dxz             0.4       0.2       0.0       8.7       0.0       0.1
10 C  dyz             2.3       0.3       0.0       0.2       0.7       0.1
10 C  dx2y2           0.0       0.2       0.6       0.1       4.0       0.6
10 C  dxy             0.1       0.7       0.7       0.2       0.1       1.0
10 C  f-2             0.0       0.0       0.0       0.2       0.0       0.0
10 C  f+3             0.0       0.0       0.0       0.0       0.2       0.2
11 F  s               2.0       0.8       0.0       0.1       0.1       0.0
11 F  pz              2.5      14.7       0.2       0.9       6.3       0.6
11 F  px              0.5       4.0       2.6      22.4       1.3       0.7
11 F  py             23.8       0.2       0.2       1.3      18.1       3.8
11 F  dz2             0.2       0.2       0.0       0.0       0.0       0.0
11 F  dyz             0.2       0.1       0.0       0.0       0.0       0.0
11 F  dx2y2           0.1       0.0       0.0       0.0       0.1       0.0
12 F  s               0.0       2.8       0.0       0.0       0.1       0.2
12 F  pz             15.3       1.5       0.1      13.3       0.0       0.1
12 F  px              0.7      21.0       0.6       0.1      11.4      12.3
12 F  py              0.6       7.7       3.8       0.4       6.0       0.5
12 F  dz2             0.1       0.1       0.0       0.0       0.1       0.0
12 F  dxz             0.4       0.0       0.0       0.0       0.0       0.0
12 F  dyz             0.2       0.0       0.0       0.1       0.0       0.0
12 F  dxy             0.0       0.2       0.0       0.0       0.0       0.0
13 F  s               2.4       0.4       0.0       0.1       0.1       0.0
13 F  pz             13.4       7.6       0.0       0.1       1.8       0.0
13 F  px              0.0       7.6       2.6      22.9       0.7       0.9
13 F  py             15.6       1.8       0.0       0.8      23.7       4.3
13 F  dz2             0.2       0.1       0.0       0.0       0.0       0.0
13 F  dxz             0.0       0.2       0.1       0.0       0.0       0.0
13 F  dyz             0.2       0.1       0.0       0.0       0.0       0.0

                     24        25        26        27        28        29   
                  -0.70664  -0.67919  -0.67900  -0.67716  -0.66311  -0.61137
                   2.00000   2.00000   2.00000   2.00000   2.00000   2.00000
                  --------  --------  --------  --------  --------  --------
 0 C  s               0.0       0.0       0.0       0.2       0.0       0.0
 0 C  pz              4.2       0.4       0.3       0.1       0.0      19.1
 0 C  px              0.0       0.0       0.1       1.2       0.0       0.1
 0 C  py              0.0       0.3       0.0       3.2       0.0       0.1
 0 C  dz2             0.0       0.0       0.0       0.1       0.0       0.0
 0 C  dxz             0.8       0.0       0.0       0.0       0.0       0.1
 0 C  dyz             0.2       0.0       0.0       0.0       0.0       0.3
 0 C  dxy             0.0       0.0       0.0       0.2       0.0       0.0
 1 H  s               0.0       0.0       0.0       0.2       0.0       0.0
 1 H  pz              0.4       0.0       0.0       0.0       0.0       1.2
 1 H  py              0.0       0.0       0.0       0.2       0.0       0.0
 2 H  s               0.9       0.3       0.1       0.6       0.0       6.0
 2 H  pz              0.1       0.0       0.0       0.1       0.0       0.5
 2 H  px              0.0       0.0       0.0       0.1       0.0       0.0
 2 H  py              0.1       0.0       0.0       0.1       0.0       0.3
 3 H  s               0.9       0.0       0.0       1.1       0.0       5.6
 3 H  pz              0.1       0.0       0.0       0.1       0.0       0.5
 3 H  px              0.0       0.0       0.0       0.1       0.0       0.0
 3 H  py              0.1       0.0       0.0       0.0       0.0       0.3
 4 C  s               0.0       0.0       0.0       0.6       0.0       0.0
 4 C  pz             15.7       1.0       0.8       0.1       0.1       8.7
 4 C  px              0.1       0.3       0.0       4.3       0.0       0.0
 4 C  dz2             0.0       0.0       0.0       0.1       0.0       0.0
 4 C  dxz             0.3       0.0       0.0       0.0       0.0       3.3
 4 C  dyz             0.0       0.0       0.0       0.0       0.0       0.2
 4 C  dx2y2           0.0       0.0       0.0       0.4       0.0       0.0
 4 C  dxy             0.0       0.0       0.0       0.8       0.0       0.0
 4 C  f-2             0.0       0.0       0.0       0.0       0.0       0.2
 5 H  s               3.9       0.1       0.2       0.8       0.0       2.7
 5 H  pz              0.4       0.0       0.0       0.0       0.0       0.2
 5 H  px              0.0       0.0       0.0       0.2       0.0       0.1
 5 H  py              0.3       0.0       0.0       0.0       0.0       0.2
 6 H  s               3.6       0.6       0.2       0.2       0.0       2.7
 6 H  pz              0.4       0.0       0.0       0.0       0.0       0.2
 6 H  px              0.0       0.0       0.0       0.2       0.0       0.1
 6 H  py              0.3       0.0       0.0       0.0       0.0       0.2
 7 O  s               0.0       0.0       0.0       0.4       0.0       0.0
 7 O  pz             21.4       0.5       0.4       0.0       0.0       8.5
 7 O  px              0.0       0.4       0.1       1.3       0.0       0.0
 7 O  py              0.0       0.5       0.4      13.9       0.0       0.1
 7 O  dxz             0.5       0.2       0.2       0.0       0.0       2.7
 7 O  dyz             0.7       0.0       0.0       0.0       0.0       0.0
 7 O  dx2y2           0.0       0.0       0.0       0.4       0.0       0.0
 8 C  s               0.0       0.0       0.0       0.5       0.0       0.0
 8 C  pz              5.1       0.1       0.0       0.0       0.0      12.2
 8 C  px              0.1       0.4       0.1       5.8       0.0       0.1
 8 C  py              0.1       0.6       0.4       1.4       0.0       0.0
 8 C  dxz             1.3       0.5       0.2       0.0       0.0       0.3
 8 C  dyz             0.0       0.1       0.1       0.0       0.0       0.8
 8 C  dx2y2           0.0       0.1       0.3       0.7       0.0       0.0
 8 C  dxy             0.0       0.3       0.1       1.4       0.0       0.0
 8 C  f0              0.1       0.0       0.0       0.0       0.0       0.2
 8 C  f+2             0.0       0.0       0.0       0.0       0.0       0.1
 8 C  f-2             0.2       0.0       0.0       0.0       0.0       0.1
 9 O  s               0.1       0.1       0.1       0.0       0.0       0.0
 9 O  pz              3.6       0.0       0.0       0.1       0.0      16.6
 9 O  px              0.1       1.2       0.1       8.1       0.0       0.1
 9 O  py              0.3       0.7       1.0       0.1       0.0       0.1
 9 O  dyz             0.4       0.0       0.0       0.0       0.0       0.6
 9 O  dx2y2           0.0       0.0       0.1       0.2       0.0       0.0
 9 O  dxy             0.0       0.0       0.0       0.2       0.0       0.0
10 C  s               0.0       0.0       0.0       0.3       0.0       0.0
10 C  pz              1.2       1.1       0.5       0.1       0.0       0.1
10 C  px              0.0       0.4       0.4       0.5       0.0       0.0
10 C  py              0.0       0.2       0.8       0.4       0.0       0.0
10 C  dz2             0.2       0.4       0.2       1.5       0.0       0.0
10 C  dxz             0.9       0.2       0.0       0.0       0.0       0.3
10 C  dyz             1.0       1.0       1.5       0.1       0.0       0.2
10 C  dx2y2           0.0       0.1       1.0       0.8       0.0       0.0
10 C  dxy             0.0       1.4       0.2       2.7       0.0       0.0
10 C  f0              0.1       0.2       0.1       0.0       1.4       0.1
10 C  f+1             0.0       0.7       0.2       0.1       0.3       0.0
10 C  f-1             0.0       0.1       0.0       0.1       0.5       0.0
10 C  f+2             0.1       0.1       0.7       0.0       0.1       0.0
10 C  f-2             0.0       0.3       0.3       0.1       0.9       0.2
10 C  f+3             0.0       0.3       0.6       0.2       0.0       0.0
10 C  f-3             0.0       0.1       0.0       0.1       0.0       0.0
11 F  s               0.2       0.1       0.3       0.1       0.0       0.0
11 F  pz              3.6      13.6       9.5       0.9      11.1       0.0
11 F  px              3.4       2.0      26.5       8.5       7.2       0.8
11 F  py              1.3       3.3       0.8       5.1      11.6       0.3
11 F  dz2             0.0       0.1       0.1       0.1       0.6       0.0
11 F  dxy             0.0       0.0       0.2       0.1       0.2       0.1
12 F  s               0.0       0.3       0.2       0.1       0.0       0.0
12 F  pz              9.4      10.2       3.5       0.7      33.6       0.3
12 F  px              0.4       0.1       0.1      10.0       0.4       0.0
12 F  py              0.1      10.0      26.4      10.2       0.7       0.0
12 F  dxz             0.0       0.0       0.0       0.0       0.2       0.0
12 F  dyz             0.0       0.1       0.0       0.0       0.5       0.0
12 F  dx2y2           0.0       0.1       0.2       0.1       0.0       0.0
12 F  dxy             0.0       0.0       0.1       0.1       0.0       0.0
13 F  s               0.2       0.2       0.0       0.3       0.0       0.0
13 F  pz              3.2      16.6       6.1       2.2       2.5       0.0
13 F  px              6.7      25.9       1.8       2.3       9.5       1.1
13 F  py              0.4       0.7      11.6       1.3      17.6       0.6
13 F  dz2             0.0       0.2       0.1       0.0       0.2       0.0
13 F  dxz             0.0       0.1       0.0       0.0       0.2       0.0
13 F  dyz             0.0       0.0       0.1       0.0       0.3       0.0
13 F  dxy             0.0       0.2       0.0       0.0       0.1       0.1

                     30        31        32        33        34        35   
                  -0.59194  -0.57041  -0.53832  -0.53601  -0.49009  -0.48883
                   2.00000   2.00000   2.00000   2.00000   2.00000   2.00000
                  --------  --------  --------  --------  --------  --------
 0 C  s               0.0       0.1       0.7       0.0       0.0       0.0
 0 C  pz              0.1       0.0       0.4      20.1       0.4       2.1
 0 C  px              0.5      35.4       2.6       0.0       1.0       0.3
 0 C  py             14.3       2.7      20.0       0.5       0.1       0.0
 0 C  dz2             0.7       0.6       0.5       0.1       0.0       0.0
 0 C  dxz             0.0       0.0       0.0       0.4       0.0       0.2
 0 C  dyz             0.0       0.0       0.2       4.1       0.3       1.9
 0 C  dx2y2           0.2       1.1       0.9       0.0       0.3       0.0
 0 C  dxy             0.1       1.5       0.3       0.0       0.1       0.0
 1 H  s               2.5      20.6       0.5       0.0       0.8       0.1
 1 H  pz              0.0       0.0       0.0       1.0       0.0       0.1
 1 H  px              0.2       0.9       0.2       0.0       0.0       0.0
 1 H  py              0.5       0.2       0.6       0.0       0.0       0.0
 2 H  s               2.6       0.8       6.0       6.3       0.5       1.1
 2 H  pz              0.2       0.0       0.2       0.6       0.0       0.1
 2 H  px              0.0       1.7       0.0       0.0       0.0       0.0
 2 H  py              0.4       0.2       0.3       0.3       0.0       0.0
 3 H  s               3.1       0.9       1.8      10.3       0.0       1.5
 3 H  pz              0.2       0.1       0.2       0.5       0.0       0.1
 3 H  px              0.0       1.7       0.1       0.0       0.0       0.0
 3 H  py              0.4       0.2       0.5       0.2       0.0       0.0
 4 C  s               0.0       0.3       0.7       0.0       0.1       0.0
 4 C  pz              0.0       0.0       0.0       6.9       1.3       8.0
 4 C  px              7.8       5.4       2.1       0.0       0.6       0.2
 4 C  py              0.0       3.2      20.3       0.7       0.1       0.0
 4 C  dz2             0.0       0.0       0.7       0.1       0.1       0.1
 4 C  dxz             0.0       0.0       0.2       1.2       0.1       0.6
 4 C  dyz             0.0       0.0       0.1       2.8       1.0       5.9
 4 C  dx2y2           0.4       2.7       3.4       0.1       0.0       0.0
 4 C  dxy             0.8       0.9       0.6       0.1       0.2       0.0
 4 C  f0              0.0       0.0       0.0       0.0       0.0       0.2
 4 C  f+2             0.0       0.0       0.0       0.0       0.0       0.2
 4 C  f-2             0.0       0.0       0.0       0.2       0.0       0.0
 4 C  f+3             0.2       0.2       0.1       0.0       0.1       0.0
 4 C  f-3             0.0       0.1       0.1       0.0       0.0       0.0
 5 H  s               0.0       0.1       3.2       4.6       0.5       5.1
 5 H  pz              0.0       0.0       0.2       0.1       0.0       0.3
 5 H  px              0.3       0.1       0.1       0.0       0.1       0.0
 5 H  py              0.0       0.1       0.3       0.1       0.1       0.1
 6 H  s               0.0       0.1       5.7       1.7       1.2       4.7
 6 H  pz              0.0       0.0       0.3       0.1       0.1       0.2
 6 H  px              0.3       0.1       0.0       0.0       0.1       0.0
 6 H  py              0.0       0.1       0.2       0.1       0.0       0.2
 7 O  s               1.4       0.4       1.0       0.0       0.2       0.0
 7 O  pz              0.1       0.0       0.4       4.0       5.1      25.2
 7 O  px              2.2       3.5       0.7       0.0       3.3       1.1
 7 O  py             19.1       1.1      13.4       0.8       2.9       1.1
 7 O  dz2             0.1       0.2       0.1       0.0       0.1       0.0
 7 O  dxz             0.0       0.0       0.0       0.7       0.0       0.2
 7 O  dyz             0.0       0.0       0.0       0.0       0.3       1.3
 7 O  dx2y2           0.6       0.4       1.8       0.1       0.1       0.1
 7 O  dxy             0.2       0.6       0.3       0.0       0.1       0.0
 8 C  s               0.3       0.1       0.2       0.0       0.1       0.0
 8 C  pz              0.0       0.0       0.3       4.7       0.1       0.4
[...]
12 F  s               0.0       0.3       0.0       0.0       0.0       0.1
12 F  pz              0.0       0.0       0.0       0.1       0.1       0.0
12 F  py              0.0       0.0       0.0       0.0       0.0       0.2
12 F  dz2             0.1       3.8      24.5       0.8       2.3       0.4
12 F  dxz            16.7       0.0       0.4      15.2      29.4       0.0
12 F  dyz            29.1       0.3       1.4       0.7       3.0       1.4
12 F  dx2y2           1.5       1.2       1.9       0.1       0.0      24.4
12 F  dxy             0.1       7.9       3.8       0.5       1.5       2.3
12 F  f0              0.0       0.0       0.1       0.8       0.5       0.1
12 F  f+1             0.0       0.0       0.2       0.3       0.4       0.0
12 F  f-1             0.0       0.0       0.1       0.1       0.1       0.3
12 F  f+2             0.2       0.0       0.0       0.7       0.7       0.1
12 F  f-2             0.0       0.0       0.0       0.4       1.0       0.3
12 F  f+3             0.0       0.1       0.0       0.0       0.1       2.2
12 F  f-3             0.0       0.1       0.1       0.1       0.1       0.0
13 F  s               0.1       0.1       0.0       0.0       0.0       0.0
13 F  px              0.0       0.0       0.0       0.0       0.0       0.1
13 F  dz2             4.1       0.0       0.7      10.0      10.6       0.0
13 F  dxz             0.0       0.4       9.7       5.1       8.2      24.5
13 F  dyz             3.7       5.4       0.7       5.9       3.4       0.5
13 F  dx2y2          19.5      16.2       5.0      15.7       2.1       4.5
13 F  dxy             0.8      18.1      15.5       0.0       1.9       2.5
13 F  f0              0.1       0.0       0.0       1.1       1.2       0.0
13 F  f+1             0.0       0.0       0.2       0.5       0.3       1.2
13 F  f-1             0.0       0.2       0.1       0.0       0.2       0.2
13 F  f+2             0.1       0.0       0.0       1.4       0.0       0.4
13 F  f-2             0.0       0.1       0.1       0.1       0.3       0.3
13 F  f-3             0.0       0.0       0.0       0.4       0.0       0.0

                    378       379       380       381       382       383   
                   9.49671   9.75331   9.78303   9.80210   9.93668   9.95310
                   0.00000   0.00000   0.00000   0.00000   0.00000   0.00000
                  --------  --------  --------  --------  --------  --------
 8 C  s               0.1       0.0       0.0       0.1       0.0       0.0
 8 C  pz              0.0       0.1       0.0       0.0       0.0       0.0
 8 C  px              0.1       0.0       0.1       0.0       0.0       0.0
 8 C  py              0.0       0.0       0.1       0.2       0.0       0.0
10 C  s               0.2       0.0       0.4       2.9       0.0       0.0
10 C  pz              0.0       0.0       0.0       0.0       3.6       0.0
10 C  px              0.5       0.0       0.1       0.8       0.0       1.3
10 C  py              0.3       0.0       0.0       0.4       0.0       2.5
10 C  dz2             0.2       0.1       1.0       0.1       0.1       0.4
10 C  dxz             0.0       2.5       0.0       0.0       0.1       0.1
10 C  dyz             0.0       0.2       0.2       0.0       0.9       0.1
10 C  dx2y2           0.1       0.0       1.5       0.3       0.0       0.2
10 C  dxy             0.3       0.1       0.0       0.1       0.0       0.3
10 C  f+1             0.1       0.0       0.0       0.0       0.0       0.0
10 C  f-1             0.0       0.0       0.0       0.2       0.0       0.0
11 F  s               0.0       0.0       0.1       0.7       1.6       0.7
11 F  pz              0.0       0.0       0.1       0.5       0.7       0.5
11 F  px              0.1       0.4       0.0       0.0       0.0       0.0
11 F  py              0.1       0.0       0.5       0.1       0.9       0.3
11 F  dz2             4.2       0.8      19.3      12.2       0.9       3.0
11 F  dxz             8.2       6.1       0.0       0.4       0.4       0.4
11 F  dyz             1.4       1.0       6.0      14.2      29.3      10.3
11 F  dx2y2           3.5       0.3       5.7       2.8       5.7       3.3
11 F  dxy            12.4      17.7       1.1       0.7       0.8       0.1
11 F  f0              0.3       0.0       1.6       0.1       0.1       0.0
11 F  f-1             0.0       0.2       0.0       0.6       1.2       0.4
11 F  f+2             0.3       0.2       0.3       0.3       1.0       0.6
11 F  f-2             0.5       0.7       0.0       0.0       0.1       0.0
11 F  f+3             0.3       0.6       0.1       0.0       0.1       0.0
11 F  f-3             0.1       0.1       0.0       0.1       0.1       0.1
12 F  s               0.0       0.0       0.0       0.7       0.0       2.5
12 F  pz              0.0       0.5       0.0       0.0       0.0       0.1
12 F  px              0.1       0.0       0.1       0.5       0.0       1.6
12 F  py              0.1       0.0       0.3       0.1       0.0       0.8
12 F  dz2             0.9       3.7       0.3       4.0       0.5      12.3
12 F  dxz             0.1      13.3       0.0       1.8       0.1       3.2
12 F  dyz             0.6      18.5       0.4       0.5       1.4       1.7
12 F  dx2y2          29.3       0.0      14.0       6.5       0.0       5.5
12 F  dxy             3.5       1.0      10.6      13.5       0.4      31.6
12 F  f0              0.0       0.5       0.0       0.1       0.0       0.2
12 F  f+1             0.2       0.2       0.2       0.2       0.0       0.8
12 F  f-1             0.0       0.3       0.0       0.1       0.0       0.3
12 F  f-2             0.0       1.3       0.0       0.1       0.0       0.4
12 F  f+3             1.4       0.0       1.1       0.0       0.0       0.2
12 F  f-3             0.2       0.0       0.0       0.9       0.0       2.0
13 F  s               0.0       0.1       0.2       0.7       1.9       0.4
13 F  pz              0.0       0.0       0.0       0.6       1.4       0.4
13 F  px              0.1       0.4       0.0       0.0       0.0       0.0
13 F  py              0.1       0.0       0.5       0.0       0.5       0.0
13 F  dz2             4.9       0.2       4.8      24.8      17.3       6.7
13 F  dxz            10.5      15.1       0.4       0.5       0.3       0.4
13 F  dyz             4.0       0.0      24.3       3.9      24.7       2.1
13 F  dx2y2           0.5       0.1       1.7       0.6       0.9       0.7
13 F  dxy             8.0      11.3       0.0       0.3       0.1       0.6
13 F  f0              0.2       0.1       0.8       0.7       0.5       0.2
13 F  f+1             0.2       0.4       0.0       0.1       0.0       0.0
13 F  f-1             0.2       0.0       1.1       0.3       2.1       0.3
13 F  f+2             0.1       0.0       0.2       0.1       0.3       0.2
13 F  f-2             0.7       1.1       0.0       0.0       0.0       0.0
13 F  f+3             0.1       0.2       0.0       0.0       0.0       0.0

                    384       385       386       387       388       389   
                  23.62187  23.78603  24.05065  24.73710  45.83603  46.06711
                   0.00000   0.00000   0.00000   0.00000   0.00000   0.00000
                  --------  --------  --------  --------  --------  --------
 0 C  s              98.0       0.5       0.0       0.0       0.0       0.0
 1 H  s               0.2       0.0       0.0       0.0       0.0       0.0
 2 H  s               0.2       0.0       0.0       0.0       0.0       0.0
 3 H  s               0.2       0.0       0.0       0.0       0.0       0.0
 4 C  s               0.6      97.3       0.1       0.4       0.0       0.1
 5 H  s               0.0       0.2       0.0       0.0       0.0       0.0
 6 H  s               0.0       0.2       0.0       0.0       0.0       0.0
 7 O  s               0.0       0.1       0.0       0.5       0.8      98.8
 7 O  px              0.0       0.1       0.0       0.4       0.0       0.0
 7 O  py              0.0       0.0       0.0       0.2       0.0       0.0
 7 O  dxy             0.0       0.1       0.0       0.2       0.0       0.0
 8 C  s               0.0       0.3       0.0      95.3       0.1       0.0
 8 C  px              0.0       0.0       0.0       0.2       0.0       0.0
 8 C  py              0.0       0.0       0.0       0.2       0.1       0.0
 8 C  dz2             0.0       0.0       0.0       0.2       0.0       0.0
 8 C  dxy             0.0       0.0       0.1       0.1       0.0       0.0
 9 O  s               0.0       0.0       0.0       1.1      98.8       0.8
 9 O  py              0.0       0.0       0.0       0.7       0.0       0.0
10 C  s               0.0       0.1      96.7       0.1       0.0       0.0
11 F  s               0.0       0.0       0.3       0.0       0.0       0.0
11 F  pz              0.0       0.0       0.2       0.0       0.0       0.0
11 F  py              0.0       0.0       0.2       0.0       0.0       0.0
11 F  dyz             0.0       0.0       0.1       0.0       0.0       0.0
12 F  s               0.0       0.0       0.3       0.0       0.0       0.0
12 F  px              0.0       0.0       0.2       0.0       0.0       0.0
13 F  s               0.0       0.0       0.3       0.0       0.0       0.0
13 F  pz              0.0       0.0       0.2       0.0       0.0       0.0

                    390       391       392   
                  59.31821  59.36828  59.48552
                   0.00000   0.00000   0.00000
                  --------  --------  --------
10 C  s               0.0       0.3       0.0
10 C  pz              0.1       0.0       0.0
10 C  py              0.0       0.0       0.1
11 F  s              46.1      34.2      19.4
12 F  s               0.6      43.0      56.0
13 F  s              53.0      22.4      24.3


                      *****************************
                      * MAYER POPULATION ANALYSIS *
                      *****************************

  NA   - Mulliken gross atomic population
  ZA   - Total nuclear charge
  QA   - Mulliken gross atomic charge
  VA   - Mayer's total valence
  BVA  - Mayer's bonded valence
  FA   - Mayer's free valence

  ATOM       NA         ZA         QA         VA         BVA        FA
  0 C      6.6574     6.0000    -0.6574     3.9275     3.9275    -0.0000
  1 H      0.7999     1.0000     0.2001     1.0490     1.0490     0.0000
  2 H      0.8333     1.0000     0.1667     1.0723     1.0723    -0.0000
  3 H      0.8307     1.0000     0.1693     1.0680     1.0680    -0.0000
  4 C      5.9038     6.0000     0.0962     3.5579     3.5579     0.0000
  5 H      0.8088     1.0000     0.1912     0.9881     0.9881     0.0000
  6 H      0.8060     1.0000     0.1940     0.9824     0.9824     0.0000
  7 O      8.2699     8.0000    -0.2699     1.7843     1.7843    -0.0000
  8 C      5.4616     6.0000     0.5384     4.5549     4.5549    -0.0000
  9 O      8.5568     8.0000    -0.5568     1.8493     1.8493     0.0000
 10 C      5.2202     6.0000     0.7798     3.2526     3.2526     0.0000
 11 F      9.2881     9.0000    -0.2881     0.9252     0.9252    -0.0000
 12 F      9.2730     9.0000    -0.2730     0.9134     0.9134     0.0000
 13 F      9.2904     9.0000    -0.2904     0.9196     0.9196     0.0000

  Mayer bond orders larger than 0.100000
B(  0-C ,  1-H ) :   0.9817 B(  0-C ,  2-H ) :   1.0041 B(  0-C ,  3-H ) :   0.9985 
B(  0-C ,  4-C ) :   0.9375 B(  4-C ,  5-H ) :   0.9607 B(  4-C ,  6-H ) :   0.9584 
B(  4-C ,  7-O ) :   0.6973 B(  7-O ,  8-C ) :   1.0932 B(  8-C ,  9-O ) :   1.8605 
B(  8-C , 10-C ) :   1.0617 B(  8-C , 11-F ) :   0.1297 B(  8-C , 12-F ) :   0.1902 
B(  8-C , 13-F ) :   0.1299 B( 10-C , 11-F ) :   0.7897 B( 10-C , 12-F ) :   0.7319 
B( 10-C , 13-F ) :   0.7789 

-------
TIMINGS
-------

Total SCF time: 0 days 0 hours 3 min 37 sec 

Total time                  ....     217.795 sec
Sum of individual times     ....     217.708 sec  (100.0%)

SCF preparation             ....       0.251 sec  (  0.1%)
Fock matrix formation       ....     215.721 sec  ( 99.0%)
  Startup                   ....       0.029 sec  (  0.0% of F)
  Coulomb+Exchange Fock     ....     215.560 sec  ( 99.9% of F)
Diagonalization             ....       0.000 sec  (  0.0%)
Density matrix formation    ....       0.181 sec  (  0.1%)
Total Energy calculation    ....       0.049 sec  (  0.0%)
Population analysis         ....       0.360 sec  (  0.2%)
Orbital Transformation      ....       0.112 sec  (  0.1%)
Orbital Orthonormalization  ....       0.000 sec  (  0.0%)
DIIS solution               ....       0.778 sec  (  0.4%)
SOSCF solution              ....       0.256 sec  (  0.1%)
Finished LeanSCF after 217.8 sec

Maximum memory used throughout the entire LEANSCF-calculation: 30.1 MB

-------------------------   --------------------
FINAL SINGLE POINT ENERGY      -602.700194401961
-------------------------   --------------------



           ************************************************************
           *        Program running with 4 parallel MPI-processes     *
           *              working on a common directory               *
           ************************************************************

------------------------------------------------------------------------------
                              ORCA PROPERTY CALCULATIONS
------------------------------------------------------------------------------

GBWName                                 ... scf.hf.gbw
Number of atoms                         ...     14
Number of basis functions               ...    393
Max core memory                         ...   1024 MB

Electric properties:
Dipole moment                           ... YES
Quadrupole moment                       ...  NO
Static polarizability (Dipole/Dipole)   ...  NO
Static polarizability (Dipole/Quad.)    ...  NO
Static polarizability (Quad./Quad.)     ...  NO
Static polarizability (Velocity)        ...  NO

Atomic electric properties:
Dipole moment                           ...  NO
Quadrupole moment                       ...  NO
Static polarizability                   ...  NO

Choice of electric origin               ... Center of mass
Position of electric origin             ...    -1.473610     2.169321     0.083978

General magnetic properties:
Magnetizability                         ...  NO

EPR properties:
g-Tensor (aka g-matrix)                 ...  NO
Zero-Field splitting spin-orbit         ...  NO
Zero-field splitting spin-spin          ...  NO
Hyperfine couplings                     ...  NO (   0 nuclei)
Quadrupole couplings                    ...  NO (   0 nuclei)
Contact density                         ...  NO (   0 nuclei)

NMR properties:
Chemical shifts                         ...  NO (   0 nuclei)
Spin-rotation constants                 ...  NO (   0 nuclei)
Spin-spin couplings                     ...  NO (   0 nuclei,    0 pairs)

Choice of magnetic origin               ... GIAO
Position of magnetic origin             ...     0.000000     0.000000     0.000000

Properties with geometric perturbations:
SCF Hessian                             ...  NO
IR spectrum                             ...  NO
VCD spectrum                            ...  NO
X-ray spectroscopy properties:
SCF XES/XAS/RIXS spectra                ...  NO


-------------
DIPOLE MOMENT
-------------

Method             : SCF
Type of density    : Electron Density
Multiplicity       :   1
Irrep              :   0
Energy             :  -602.7001944019613120 Eh
Relativity type    : 
Basis              : AO
                                X                 Y                 Z
Electronic contribution:    -18.248766843      -2.094511629       0.782485394
Nuclear contribution   :     19.573122213       1.861246739      -0.859319080
                        -----------------------------------------
Total Dipole Moment    :      1.324355369      -0.233264889      -0.076833687
                        -----------------------------------------
Magnitude (a.u.)       :      1.346934693
Magnitude (Debye)      :      3.423635910



--------------------
Rotational spectrum 
--------------------
 
Rotational constants in cm-1:             0.103599             0.032596             0.028834 
Rotational constants in MHz :          3105.823699           977.195472           864.408930 

Dipole components along the rotational axes: 
x,y,z [a.u.] :     1.303911    -0.337693    -0.003450 
x,y,z [Debye]:     3.314279    -0.858347    -0.008770 

 

Dipole moment calculation done in   0.0 sec 

Maximum memory used throughout the entire PROP-calculation: 22.7 MB

--------------------------------
SUGGESTED CITATIONS FOR THIS RUN
--------------------------------

Below you find a list of papers that are relevant to this ORCA run
We neither can nor want to force you to cite these papers, but we appreciate if you do
You receive ORCA, which is the product of decades of hard work by many enthusiastic individuals, for free
The only thing we kindly ask in return is that you cite our papers,
We deeply appreciate it, if you show your appreciation for ORCA by not just citing the generic ORCA reference.

Please note that relegating all ORCA citations to the supporting information does *not* help us.
SI sections are not indexed - citations you put there will not count into any citation statistics
But we need these citations in order to attract the funding resources that allow us to do what we are doing

Therefore, if you are a happy ORCA user, please consider citing a few of the papers listed below in the main body of your paper

In addition to the list printed below, the program has created the file scf.hf.bibtex that contains the list in bibtex format
You can import this file easily into all common literature databanks and citation aid programs


List of essential papers. We consider these as the minimum necessary citations

  1. Neese,F.
     Software update: the ORCA program system, version 5.0
     WIRES Comput. Molec. Sci., 2022 12(1)e1606
     doi.org/10.1002/wcms.1606

List of papers to cite with high priority. The work reported in these papers was absolutely
necessary for this run to complete.
Our perspective: the developers of density functionals and basis sets usually get cited in chemistry papers
Good! But without the algorithms to do something with them, the functionals or basis sets would not do anything.
Hence, in our opinion, the algorithm design and method developments papers are equally worthy of getting cited

  1. Neese,F.
     The SHARK Integral Generation and Digestion System
     J. Comp. Chem., 2022  1-16
     doi.org/10.1002/jcc.26942

List of suggested additional citations. These are papers that are important in the 'surrounding' of 
of this run, or papers that preceded the highly important papers. If you like your results we are grateful for a citation.

  1. Neese,F.
     The ORCA program system
     WIRES Comput. Molec. Sci., 2012 2(1)73-78
     doi.org/10.1002/wcms.81
  2. Neese,F.
     Software update: the ORCA program system, version 4.0
     WIRES Comput. Molec. Sci., 2018 8(1)1-6
     doi.org/10.1002/wcms.1327
  3. Neese,F.; Wennmohs,F.; Becker,U.; Riplinger,C.
     The ORCA quantum chemistry program package
     J. Chem. Phys., 2020 152 Art. No. L224108
     doi.org/10.1063/5.0004608

List of optional additional citations

  1. Neese,F.
     Approximate second-order SCF convergence for spin unrestricted wavefunctions
     Chem. Phys. Lett., 2000 325(1-3)93-98
     doi.org/10.1016/s0009-2614(00)00662-x

Timings for individual modules:

Sum of individual times          ...      220.588 sec (=   3.676 min)
Startup calculation              ...        1.259 sec (=   0.021 min)   0.6 %
SCF iterations                   ...      218.903 sec (=   3.648 min)  99.2 %
Property calculations            ...        0.426 sec (=   0.007 min)   0.2 %
                             ****ORCA TERMINATED NORMALLY****
TOTAL RUN TIME: 0 days 0 hours 3 minutes 41 seconds 101 msec
