
                                 *****************
                                 * O   R   C   A *
                                 *****************

                                            #,                                       
                                            ###                                      
                                            ####                                     
                                            #####                                    
                                            ######                                   
                                           ########,                                 
                                     ,,################,,,,,                         
                               ,,#################################,,                 
                          ,,##########################################,,             
                       ,#########################################, ''#####,          
                    ,#############################################,,   '####,        
                  ,##################################################,,,,####,       
                ,###########''''           ''''###############################       
              ,#####''   ,,,,##########,,,,          '''####'''          '####       
            ,##' ,,,,###########################,,,                        '##       
           ' ,,###''''                  '''############,,,                           
         ,,##''                                '''############,,,,        ,,,,,,###''
      ,#''                                            '''#######################'''  
     '                                                          ''''####''''         
             ,#######,   #######,   ,#######,      ##                                
            ,#'     '#,  ##    ##  ,#'     '#,    #''#        ,####,   ,####,        
            ##       ##  ##   ,#'  ##            #'  '#       #'       #'  '#        
            ##       ##  #######   ##           ,######,      #####,   #    #        
            '#,     ,#'  ##    ##  '#,     ,#' ,#      #,     #,   #   #,  ,#        
             '#######'   ##     ##  '#######'  #'      '#     '####' # '####'        



                #########################################################
                #                        -***-                          #
                #          Department of theory and spectroscopy        #
                #                                                       #
                #                      Frank Neese                      #
                #                                                       #
                #     Directorship, Architecture, Infrastructure        #
                #                    SHARK, DRIVERS                     #
                #        Core code/Algorithms in most modules           #
                #                                                       #
                #        Max Planck Institute fuer Kohlenforschung      #
                #                Kaiser Wilhelm Platz 1                 #
                #                 D-45470 Muelheim/Ruhr                 #
                #                      Germany                          #
                #                                                       #
                #                  All rights reserved                  #
                #                        -***-                          #
                #########################################################


                         Program Version 6.0.1  -  RELEASE   -


 With contributions from (in alphabetic order):
[Max-Planck-Institut fuer Kohlenforschung]                               
  Daniel Aravena         : Magnetic Suceptibility                        
  Michael Atanasov       : Ab Initio Ligand Field Theory (pilot matlab implementation)
  Alexander A. Auer      : GIAO ZORA, VPT2 properties, NMR spectrum      
  Ute Becker             : All parallelization in ORCA, NUMFREQ, NUMCALC 
  Giovanni Bistoni       : ED, misc. LED, open-shell LED, HFLD           
  Martin Brehm           : Molecular dynamics                            
  Dmytro Bykov           : pre 5.0 version of the SCF Hessian            
  Marcos Casanova-Páez   : Triplet and SCS-CIS(D). UHF-(DLPNO)-IP/EA/STEOM-CCSD. UHF-CVS-IP/STEOM-CCSD   
  Vijay G. Chilkuri      : MRCI spin determinant printing, contributions to CSF-ICE 
  Pauline Colinet        : FMM embedding                                 
  Dipayan Datta          : RHF DLPNO-CCSD density                        
  Achintya Kumar Dutta   : EOM-CC, STEOM-CC                              
  Nicolas Foglia         : Exact transition moments, OPA infrastructure, MCD improvements    
  Dmitry Ganyushin       : Spin-Orbit,Spin-Spin,Magnetic field MRCI      
  Miquel Garcia-Rates    : C-PCM and meta-GGA Hessian, CCSD/C-PCM, Gaussian charge scheme 
  Tiago L. C. Gouveia    : GS-ROHF, GS-ROCIS                             
  Yang Guo               : DLPNO-NEVPT2, F12-NEVPT2, CIM, IAO-localization        
  Andreas Hansen         : Spin unrestricted coupled pair/coupled cluster methods 
  Ingolf Harden          : AUTO-CI MPn and infrastructure                
  Benjamin Helmich-Paris : MC-RPA, TRAH-(SCF,CASSCF), AVAS, COSX integrals, SCF dyn. polar. 
  Lee Huntington         : MR-EOM, pCC                                   
  Robert Izsak           : Overlap fitted RIJCOSX, COSX-SCS-MP3, EOM     
  Riya Kayal             : Wick's Theorem for AUTO-CI, AUTO-CI UHF-CCSDT 
  Emily Kempfer          : AUTO-CI, RHF CISDT and CCSDT                  
  Christian Kollmar      : KDIIS, OOCD, Brueckner-CCSD(T), CCSD density, CASPT2, CASPT2-K, improved NEVPT2 
  Axel Koslowski         : Symmetry handling                             
  Simone Kossmann        : meta-GGA functionals, TD-DFT gradient, OOMP2, (MP2 Hessian; deprecated post 5.0) 
  Lucas Lang             : DCDCAS                                        
  Marvin Lechner         : AUTO-CI (C++ implementation), FIC-MRCC        
  Spencer Leger          : CASSCF response                               
  Dagmar Lenk            : GEPOL surface, SMD, ORCA-2-JSON               
  Dimitrios Liakos       : Extrapolation schemes; Compound Job, initial MDCI parallelization 
  Dimitrios Manganas     : Further ROCIS development; embedding schemes. LFT, Crystal Embedding 
  Dimitrios Pantazis     : SARC Basis sets                               
  Anastasios Papadopoulos: AUTO-CI, single reference methods and gradients 
  Taras Petrenko         : pre 6.0 DFT Hessian and TD-DFT gradient, (ASA, deprecated), ECA, 1-Electron XAS/XES, NRVS 
  Peter Pinski           : DLPNO-MP2, DLPNO-MP2 Gradient                 
  Christoph Reimann      : Effective Core Potentials                     
  Marius Retegan         : Local ZFS, SOC                                
  Christoph Riplinger    : Optimizer, TS searches, QM/MM, DLPNO-CCSD(T), (RO)-DLPNO pert. Triples 
  Michael Roemelt        : Original ROCIS implementation                 
  Masaaki Saitow         : Open-shell DLPNO-CCSD energy and density      
  Barbara Sandhoefer     : DKH picture change effects                    
  Kantharuban Sivalingam : CASSCF convergence/infrastructure, NEVPT2 and variants, FIC-MRCI 
  Bernardo de Souza      : ESD, SOC TD-DFT                               
  Georgi L. Stoychev     : AutoAux, RI-MP2 NMR, DLPNO-MP2 response, X2C  
  Van Anh Tran           : RI-MP2 g-tensors                              
  Willem Van den Heuvel  : Paramagnetic NMR                              
  Zikuan Wang            : NOTCH, Electric field optimization            
  Frank Wennmohs         : Technical directorship and infrastructure     
  Hang Xu                : AUTO-CI-Response properties                   
                                                                         
[FACCTs GmbH]                                                            
  Markus Bursch, Miquel Garcia-Rates, Christoph Riplinger, Bernardo de Souza, Georgi L. Stoychev 
                                                                 
  APM, Basis sets (HGBS, AHGBS, def-TZVP (Ac-Lr), def2-XVPD (La-Lu)), CI-OPT, improved COSX, DLPNO-Multilevel,           
  DOCKER, DRACO, updates on ESD, GOAT, IRC, LR-CPCM, MBIS, meta-GGA TD-DFT gradient, ML-optimized integration grids, 
  MM, NACMEs, nearIR, NEB, NEB-TS, NL-DFT gradient (VV10), 2- and 3-layer-ONIOM, interface openCOSMO-RS, QMMM,   
  Crystal-QMMM, SF, symmetry and pop. for TD-DFT, r2SCAN hybrids, SOLVATOR                                   
                                                                         
[Other institutions]                                                     
  V. Asgeirsson          : NEB                                           
  Christoph Bannwarth    : sTDA-DFT, sTD-DFT, PBEh-3c, B97-3c, D3        
  Sebastian Ehlert       : rSCAN, r2SCAN, r2SCAN-3c, D4, dhf basis sets  
  Marvin Friede          : D4 for Fr, Ra, Ac-Lr                          
  Lars Goerigk           : TD-DFT with DH, B97 family of functionals     
  Stefan Grimme          : VdW corrections, initial TS optimization, DFT functionals, gCP, sTDA/sTD-DF 
  Waldemar Hujo          : DFT-NL                                        
  H. Jonsson             : NEB                                           
  Holger Kruse           : gCP                                           
  Marcel Mueller         : wB97X-3c, vDZP basis set                      
  Hagen Neugebauer       : wr2SCAN                                       
  Tobias Risthaus        : range-separated hybrid DFT                    
  Lukas Wittmann         : regularized MP2, r2SCAN double-hybrids, wr2SCAN        
                                                                         
We gratefully acknowledge several colleagues who have allowed us to      
interface, adapt or use parts of their codes:                            
  Ed Valeev, F. Pavosevic, A. Kumar             : LibInt (2-el integral package), F12 methods 
  Garnet Chan, S. Sharma, J. Yang, R. Olivares  : DMRG                   
  Ulf Ekstrom                                   : XCFun DFT Library      
  Mihaly Kallay                                 : mrcc  (arbitrary order and MRCC methods)
  Frank Weinhold                                : gennbo (NPA and NBO analysis)           
  Simon Mueller                                 : openCOSMO-RS                            
  Christopher J. Cramer and Donald G. Truhlar   : smd solvation model                     
  S Lehtola, MJT Oliveira, MAL Marques          : LibXC Library                           
  Liviu Ungur et al                             : ANISO software                          


 Your calculation uses the libint2 library for the computation of 2-el integrals
 For citations please refer to: http://libint.valeyev.net

 Your ORCA version has been built with support for libXC version: 6.2.2
 For citations please refer to: https://libxc.gitlab.io

 This ORCA versions uses:
   CBLAS   interface :  Fast vector & matrix operations
   LAPACKE interface :  Fast linear algebra routines
   SCALAPACK package :  Parallel linear algebra routines
   Shared memory     :  Shared parallel matrices
   BLAS/LAPACK       :  OpenBLAS 0.3.27  USE64BITINT DYNAMIC_ARCH NO_AFFINITY SkylakeX SINGLE_THREADED
        Core in use  :  SkylakeX
   Copyright (c) 2011-2014, The OpenBLAS Project




***************************************
The coordinates will be read from file: opt.xyz
***************************************


XCFun DFT library Copyright 2009-2010 Ulf Ekstrom and contributors.
See http://admol.org/xcfun for more information.
This is free software; see the source code for copying conditions.
There is ABSOLUTELY NO WARRANTY; not even for MERCHANTABILITY or FITNESS FOR A PARTICULAR PURPOSE.
For details see the documentation.
Scientific users of this library should cite U. Ekstrom, L. Visscher, R. Bast, A. J. Thorvaldsen and K. Ruud;
J.Chem.Theor.Comp. 2010, DOI: 10.1021/ct100117s
XCFun Version 0.99 

================================================================================

----- Orbital basis set information -----
Your calculation utilizes the basis: def2-TZVPD
   F. Weigend and R. Ahlrichs, Phys. Chem. Chem. Phys. 7, 3297 (2005).
   D. Rappoport and F. Furche, J. Chem. Phys. 133, 134105 (2010)
   D. Rappoport, J. Chem. Phys. 155, 124102 (2021).

----- AuxJ basis set information -----
Your calculation utilizes the auxiliary basis: def2/J
   F. Weigend, Phys. Chem. Chem. Phys. 8, 1057 (2006).

================================================================================
                                        WARNINGS
                       Please study these warnings very carefully!
================================================================================


INFO   : The exchange functional is Becke's original B97,
         As described in A.D. Becke, J. Chem. Phys. 107, 8554 (1997)
         Note that this functional does not observe the UEG, for this reason, ACM-B defaults to 1.0 
         although this is a hybrid. 

INFO   : The correlation functional is Becke's original B97,
         As described in A.D. Becke, J. Chem. Phys. 107, 8554 (1997).

================================================================================
                                       INPUT FILE
================================================================================
NAME = scf.b97.inp
|  1> ! B97 def2-TZVPD def2/J
|  2> 
|  3> %pal nprocs 4 end
|  4> 
|  5> %output Print[P_ReducedOrbPopMO_L] 1 end
|  6> 
|  7> * xyzfile 0 1 opt.xyz
|  8> 
|  9>                          ****END OF INPUT****
================================================================================

                       ****************************
                       * Single Point Calculation *
                       ****************************

---------------------------------
CARTESIAN COORDINATES (ANGSTROEM)
---------------------------------
  C      2.702600    0.689523   -0.145928
  H      3.670345    1.191912   -0.175981
  H      2.686294    0.026283    0.719168
  H      2.599061    0.087695   -1.048909
  C      1.606415    1.719310   -0.054840
  H      1.681207    2.325971    0.848839
  H      1.597548    2.391508   -0.914412
  O      0.347047    1.013989   -0.022341
  C     -0.734084    1.760161    0.086863
  O     -0.786454    2.949773    0.164472
  C     -1.993808    0.858488    0.089849
  F     -1.906614   -0.076167    1.038669
  F     -3.080715    1.580352    0.309364
  F     -2.123108    0.244631   -1.089872

----------------------------
CARTESIAN COORDINATES (A.U.)
----------------------------
  NO LB      ZA    FRAG     MASS         X           Y           Z
   0 C     6.0000    0    12.011    5.107174    1.303011   -0.275763
   1 H     1.0000    0     1.008    6.935948    2.252388   -0.332557
   2 H     1.0000    0     1.008    5.076361    0.049668    1.359030
   3 H     1.0000    0     1.008    4.911513    0.165720   -1.982151
   4 C     6.0000    0    12.011    3.035684    3.249026   -0.103632
   5 H     1.0000    0     1.008    3.177020    4.395449    1.604073
   6 H     1.0000    0     1.008    3.018929    4.519294   -1.727989
   7 O     8.0000    0    15.999    0.655823    1.916162   -0.042218
   8 C     6.0000    0    12.011   -1.387217    3.326222    0.164148
   9 O     8.0000    0    15.999   -1.486183    5.574263    0.310807
  10 C     6.0000    0    12.011   -3.767751    1.622307    0.169791
  11 F     9.0000    0    18.998   -3.602978   -0.143934    1.962800
  12 F     9.0000    0    18.998   -5.821708    2.986433    0.584613
  13 F     9.0000    0    18.998   -4.012092    0.462285   -2.059559

--------------------------------
INTERNAL COORDINATES (ANGSTROEM)
--------------------------------
 C      0   0   0     0.000000000000     0.00000000     0.00000000
 H      1   0   0     1.090792508287     0.00000000     0.00000000
 H      1   2   0     1.090203702586   108.38062614     0.00000000
 H      1   2   3     1.090088518652   108.40446712   242.22709268
 C      1   2   3     1.506778404623   109.41028889   121.05509859
 H      5   1   2     1.090993391539   112.34812579   298.81683955
 H      5   1   2     1.091234657857   112.28952852    60.91241413
 O      5   1   2     1.443794037108   107.58153879   179.80170607
 C      8   5   1     1.318158123706   116.15127605   178.56612450
 O      9   8   5     1.193290646740   127.27998865   359.82346144
 C      9   8   5     1.549170101852   109.73229289   179.30608416
 F     11   9   8     1.334706346905   110.84434478    54.46812213
 F     11   9   8     1.323118419520   110.53405632   174.84707178
 F     11   9   8     1.336144168544   110.14457596   294.76072368

---------------------------
INTERNAL COORDINATES (A.U.)
---------------------------
 C      0   0   0     0.000000000000     0.00000000     0.00000000
 H      1   0   0     2.061299109596     0.00000000     0.00000000
 H      1   2   0     2.060186428075   108.38062614     0.00000000
 H      1   2   3     2.059968761984   108.40446712   242.22709268
 C      1   2   3     2.847398529245   109.41028889   121.05509859
 H      5   1   2     2.061678723926   112.34812579   298.81683955
 H      5   1   2     2.062134651194   112.28952852    60.91241413
 O      5   1   2     2.728375323923   107.58153879   179.80170607
 C      8   5   1     2.490957855007   116.15127605   178.56612450
 O      9   8   5     2.254992520509   127.27998865   359.82346144
 C      9   8   5     2.927507227358   109.73229289   179.30608416
 F     11   9   8     2.522229464858   110.84434478    54.46812213
 F     11   9   8     2.500331455639   110.53405632   174.84707178
 F     11   9   8     2.524946553984   110.14457596   294.76072368

---------------------
BASIS SET INFORMATION
---------------------
There are 4 groups of distinct atoms

 Group   1 Type C   : 12s6p3d1f contracted to 6s3p3d1f pattern {621111/411/111/1}
 Group   2 Type H   : 5s2p contracted to 3s2p pattern {311/11}
 Group   3 Type O   : 12s7p3d1f contracted to 6s4p3d1f pattern {621111/4111/111/1}
 Group   4 Type F   : 12s7p3d1f contracted to 6s4p3d1f pattern {621111/4111/111/1}

Atom   0C    basis set group =>   1
Atom   1H    basis set group =>   2
Atom   2H    basis set group =>   2
Atom   3H    basis set group =>   2
Atom   4C    basis set group =>   1
Atom   5H    basis set group =>   2
Atom   6H    basis set group =>   2
Atom   7O    basis set group =>   3
Atom   8C    basis set group =>   1
Atom   9O    basis set group =>   3
Atom  10C    basis set group =>   1
Atom  11F    basis set group =>   4
Atom  12F    basis set group =>   4
Atom  13F    basis set group =>   4
---------------------------------
AUXILIARY/J BASIS SET INFORMATION
---------------------------------
There are 4 groups of distinct atoms

 Group   1 Type C   : 12s5p4d2f1g contracted to 6s4p3d1f1g pattern {711111/2111/211/2/1}
 Group   2 Type H   : 5s2p1d contracted to 3s1p1d pattern {311/2/1}
 Group   3 Type O   : 12s5p4d2f1g contracted to 6s4p3d1f1g pattern {711111/2111/211/2/1}
 Group   4 Type F   : 12s5p4d2f1g contracted to 6s4p3d1f1g pattern {711111/2111/211/2/1}

Atom   0C    basis set group =>   1
Atom   1H    basis set group =>   2
Atom   2H    basis set group =>   2
Atom   3H    basis set group =>   2
Atom   4C    basis set group =>   1
Atom   5H    basis set group =>   2
Atom   6H    basis set group =>   2
Atom   7O    basis set group =>   3
Atom   8C    basis set group =>   1
Atom   9O    basis set group =>   3
Atom  10C    basis set group =>   1
Atom  11F    basis set group =>   4
Atom  12F    basis set group =>   4
Atom  13F    basis set group =>   4


           ************************************************************
           *        Program running with 4 parallel MPI-processes     *
           *              working on a common directory               *
           ************************************************************
------------------------------------------------------------------------------
                             ORCA STARTUP CALCULATIONS
                           -- RI-GTO INTEGRALS CHOSEN --
------------------------------------------------------------------------------
------------------------------------------------------------------------------
                   ___                                                        
                  /   \      - P O W E R E D   B Y -                         
                 /     \                                                     
                 |  |  |   _    _      __       _____    __    __             
                 |  |  |  | |  | |    /  \     |  _  \  |  |  /  |          
                  \  \/   | |  | |   /    \    | | | |  |  | /  /          
                 / \  \   | |__| |  /  /\  \   | |_| |  |  |/  /          
                |  |  |   |  __  | /  /__\  \  |    /   |      \           
                |  |  |   | |  | | |   __   |  |    \   |  |\   \          
                \     /   | |  | | |  |  |  |  | |\  \  |  | \   \       
                 \___/    |_|  |_| |__|  |__|  |_| \__\ |__|  \__/        
                                                                              
                      - O R C A' S   B I G   F R I E N D -                    
                                      &                                       
                       - I N T E G R A L  F E E D E R -                       
                                                                              
 v1 FN, 2020, v2 2021, v3 2022-2024                                           
------------------------------------------------------------------------------


----------------------
SHARK INTEGRAL PACKAGE
----------------------

Number of atoms                             ...     14
Number of basis functions                   ...    393
Number of shells                            ...    147
Maximum angular momentum                    ...      3
Integral batch strategy                     ... SHARK/LIBINT Hybrid
RI-J (if used) integral strategy            ... SPLIT-RIJ (Revised 2003 algorithm where possible)
Printlevel                                  ...      1
Contraction scheme used                     ... SEGMENTED contraction
Prescreening option                         ... SCHWARTZ
   Thresh                                   ... 1.000e-10
   Tcut                                     ... 1.000e-11
   Tpresel                                  ... 1.000e-11 
Coulomb Range Separation                    ... NOT USED
Exchange Range Separation                   ... NOT USED
Multipole approximations                    ... NOT USED
Finite Nucleus Model                        ... NOT USED
CABS basis                                  ... NOT available
Auxiliary Coulomb fitting basis             ... AVAILABLE
   # of basis functions in Aux-J            ...    496
   # of shells in Aux-J                     ...    160
   Maximum angular momentum in Aux-J        ...      4
Auxiliary J/K fitting basis                 ... NOT available
Auxiliary Correlation fitting basis         ... NOT available
Auxiliary 'external' fitting basis          ... NOT available

Checking pre-screening integrals            ... done (  0.0 sec) Dimension = 147
Check shell pair data                       ... done (  0.0 sec)
Shell pair information
Shell pair cut-off parameter TPreSel        ...   1.0e-11
Total number of shell pairs                 ...     10878
Shell pairs after pre-screening             ...      9725
Total number of primitive shell pairs       ...     28654
Primitive shell pairs kept                  ...     19811
          la=0 lb=0:   2045 shell pairs
          la=1 lb=0:   2634 shell pairs
          la=1 lb=1:    855 shell pairs
          la=2 lb=0:   1660 shell pairs
          la=2 lb=1:   1067 shell pairs
          la=2 lb=2:    359 shell pairs
          la=3 lb=0:    511 shell pairs
          la=3 lb=1:    337 shell pairs
          la=3 lb=2:    217 shell pairs
          la=3 lb=3:     40 shell pairs

Calculating one electron integrals          ... done (  0.0 sec)
Calculating RI/J V-Matrix + Cholesky decomp.... done (  0.0 sec)
Calculating Nuclear repulsion               ... done (  0.0 sec) ENN=    501.755175243768 Eh

Diagonalization of the overlap matrix:
Smallest eigenvalue                        ... 5.807e-06
Time for diagonalization                   ...    0.023 sec
Threshold for overlap eigenvalues          ... 1.000e-07
Number of eigenvalues below threshold      ... 0
Time for construction of square roots      ...    0.011 sec
Total time needed                          ...    0.036 sec

-------------------
DFT GRID GENERATION
-------------------

General Integration Accuracy     IntAcc      ... 4.388
Radial Grid Type                 RadialGrid  ... OptM3 with GC (2021)
Angular Grid (max. ang.)         AngularGrid ... 4 (Lebedev-302)
Angular grid pruning method      GridPruning ... 4 (adaptive)
Weight generation scheme         WeightScheme... mBecke (2022)
Basis function cutoff            BFCut       ... 1.0000e-10
Integration weight cutoff        WCut        ... 1.0000e-14
Partially contracted basis set               ... off
Rotationally invariant grid construction     ... off
Angular grids for H and He will be reduced by one unit
Diffuse basis detected: some atoms will have their outermost
                        angular grid increased by 1.

Total number of grid points                  ...    74424
Total number of batches                      ...     1169
Average number of points per batch           ...       63
Average number of grid points per atom       ...     5316

--------------------
COSX GRID GENERATION
--------------------

GRIDX 1
-------
General Integration Accuracy     IntAcc      ... 3.816
Radial Grid Type                 RadialGrid  ... OptM3 with GC (2021)
Angular Grid (max. ang.)         AngularGrid ... 1 (Lebedev-50)
Angular grid pruning method      GridPruning ... 4 (adaptive)
Weight generation scheme         WeightScheme... mBecke (2022)
Basis function cutoff            BFCut       ... 1.0000e-10
Integration weight cutoff        WCut        ... 1.0000e-14
Partially contracted basis set               ... on
Rotationally invariant grid construction     ... off
Angular grids for H and He will be reduced by one unit
Diffuse basis detected: some atoms will have their outermost
                        angular grid increased by 1.

Total number of grid points                  ...     9368
Total number of batches                      ...       83
Average number of points per batch           ...      112
Average number of grid points per atom       ...      669
UseSFitting                                  ... on

GRIDX 2
-------
General Integration Accuracy     IntAcc      ... 4.020
Radial Grid Type                 RadialGrid  ... OptM3 with GC (2021)
Angular Grid (max. ang.)         AngularGrid ... 2 (Lebedev-110)
Angular grid pruning method      GridPruning ... 4 (adaptive)
Weight generation scheme         WeightScheme... mBecke (2022)
Basis function cutoff            BFCut       ... 1.0000e-10
Integration weight cutoff        WCut        ... 1.0000e-14
Partially contracted basis set               ... on
Rotationally invariant grid construction     ... off
Angular grids for H and He will be reduced by one unit
Diffuse basis detected: some atoms will have their outermost
                        angular grid increased by 1.

Total number of grid points                  ...    23844
Total number of batches                      ...      193
Average number of points per batch           ...      123
Average number of grid points per atom       ...     1703
UseSFitting                                  ... on

GRIDX 3
-------
General Integration Accuracy     IntAcc      ... 4.338
Radial Grid Type                 RadialGrid  ... OptM3 with GC (2021)
Angular Grid (max. ang.)         AngularGrid ... 3 (Lebedev-194)
Angular grid pruning method      GridPruning ... 4 (adaptive)
Weight generation scheme         WeightScheme... mBecke (2022)
Basis function cutoff            BFCut       ... 1.0000e-10
Integration weight cutoff        WCut        ... 1.0000e-14
Partially contracted basis set               ... on
Rotationally invariant grid construction     ... off
Angular grids for H and He will be reduced by one unit
Diffuse basis detected: some atoms will have their outermost
                        angular grid increased by 1.

Total number of grid points                  ...    52460
Total number of batches                      ...      416
Average number of points per batch           ...      126
Average number of grid points per atom       ...     3747
UseSFitting                                  ... on
Initializing property integral containers    ... done (  0.0 sec)

SHARK setup successfully completed in   1.7 seconds

Maximum memory used throughout the entire STARTUP-calculation: 34.4 MB


           ************************************************************
           *        Program running with 4 parallel MPI-processes     *
           *              working on a common directory               *
           ************************************************************
-------------------------------------------------------------------------------
                                 ORCA GUESS
                   Start orbitals & Density for SCF / CASSCF
-------------------------------------------------------------------------------

------------
SCF SETTINGS
------------
Hamiltonian:
 Density Functional     Method          .... DFT(GTOs)
 Exchange Functional    Exchange        .... B97BECKE
 Correlation Functional Correlation     .... B97BECKE
 Gradients option       PostSCFGGA      .... off
 Hybrid DFT is turned on
   Fraction HF Exchange ScalHFX         ....  0.194300
   Scaling of DF-GGA-X  ScalDFX         ....  1.000000
   Scaling of DF-GGA-C  ScalDFC         ....  1.000000
   Scaling of DF-LDA-C  ScalLDAC        ....  1.000000
   Perturbative correction              ....  0.000000
 RI-approximation to the Coulomb term is turned on
   Number of AuxJ basis functions       .... 496
   RIJ-COSX (HFX calculated with COS-X)).... on


General Settings:
 Integral files         IntName         .... scf.b97
 Hartree-Fock type      HFTyp           .... RHF
 Total Charge           Charge          ....    0
 Multiplicity           Mult            ....    1
 Number of Electrons    NEL             ....   72
 Basis Dimension        Dim             ....  393
 Nuclear Repulsion      ENuc            ....    501.7551752438 Eh

Convergence Acceleration:
 AO-DIIS                CNVDIIS         .... on
   Start iteration      DIISMaxIt       ....    12
   Startup error        DIISStart       ....  0.200000
   # of expansion vecs  DIISMaxEq       ....     5
   Bias factor          DIISBfac        ....   1.050
   Max. coefficient     DIISMaxC        ....  10.000
 MO-DIIS                CNVKDIIS        .... off
 Trust-Rad. Augm. Hess. CNVTRAH         .... auto
   Auto Start mean grad. ratio tolernc. ....  1.125000
   Auto Start start iteration           ....    50
   Auto Start num. interpolation iter.  ....    10
   Max. Number of Micro iterations      ....    24
   Max. Number of Macro iterations      .... Maxiter - #DIIS iter
   Number of Davidson start vectors     ....     2
   Converg. threshold    (grad. norm)   ....   5.000e-05
   Grad. Scal. Fac. for Micro threshold ....   0.100
   Minimum threshold for Micro iter.    ....   1.000e-02
   NR start threshold (gradient norm)   ....   1.000e-04
   Initial trust radius                 ....   0.400
   Minimum AH scaling param. (alpha)    ....   1.000
   Maximum AH scaling param. (alpha)    .... 1000.000
   Quad. conv. algorithm                .... NR
   White noise on init. David. guess    .... on
   Maximum white noise                  ....   0.010
   Pseudo random numbers                .... off
   Inactive MOs                         .... canonical
   Orbital update algorithm             .... Taylor
   Preconditioner                       .... Diag
   Full preconditioner red. dimension   ....   250
 SOSCF                  CNVSOSCF        .... on
   Start iteration      SOSCFMaxIt      ....   150
   Startup grad/error   SOSCFStart      ....  0.003300
   Hessian update       SOSCFHessUp     .... L-BFGS
 Level Shifting         CNVShift        .... on
   Level shift para.    LevelShift      ....    0.2500
   Turn off err/grad.   ShiftErr        ....    0.0010
 Zerner damping         CNVZerner       .... off
 Static damping         CNVDamp         .... on
   Fraction old density DampFac         ....    0.7000
   Max. Damping (<1)    DampMax         ....    0.9800
   Min. Damping (>=0)   DampMin         ....    0.0000
   Turn off err/grad.   DampErr         ....    0.1000

SCF Procedure:
 Maximum # iterations   MaxIter         ....   125
 SCF integral mode      SCFMode         .... Direct
   Integral package                     .... SHARK and LIBINT hybrid scheme
 Reset frequency        DirectResetFreq ....    20
 Integral Threshold     Thresh          ....  1.000e-10 Eh
 Primitive CutOff       TCut            ....  1.000e-11 Eh

Convergence Tolerance:
 Convergence Check Mode ConvCheckMode   .... Total+1el-Energy
 Convergence forced     ConvForced      .... 0
 Energy Change          TolE            ....  1.000e-06 Eh
 1-El. energy change                    ....  1.000e-03 Eh
 Orbital Gradient       TolG            ....  5.000e-05
 Orbital Rotation angle TolX            ....  5.000e-05
 DIIS Error             TolErr          ....  1.000e-06

------------------------------
INITIAL GUESS: MODEL POTENTIAL
------------------------------
Loading Hartree-Fock densities                     ... done
Calculating cut-offs                               ... done
Initializing the effective Hamiltonian             ... done
Setting up the integral package (SHARK)            ... done
Starting the Coulomb interaction                   ... done (   0.2 sec)
Making the grid                                    ... done (   0.3 sec)
Mapping shells                                     ... done
Starting the XC term evaluation                    ... done (   0.2 sec)
  promolecular density results
     # of electrons  =     71.996794473
     EX              =    -68.269489872
     EC              =     -2.463672173
     EX+EC           =    -70.733162045
Transforming the Hamiltonian                       ... done (   0.0 sec)
Diagonalizing the Hamiltonian                      ... done (   0.0 sec)
Back transforming the eigenvectors                 ... done (   0.0 sec)
Now organizing SCF variables                       ... done
                      ------------------
                      INITIAL GUESS DONE (   0.7 sec)
                      ------------------
             **** ENERGY FILE WAS UPDATED (scf.b97.en.tmp) ****
Finished Guess after   1.0 sec
Maximum memory used throughout the entire GUESS-calculation: 26.0 MB


           ************************************************************
           *        Program running with 4 parallel MPI-processes     *
           *              working on a common directory               *
           ************************************************************

-------------------------------------------------------------------------------------------
                                      ORCA LEAN-SCF
                              memory conserving SCF solver
-------------------------------------------------------------------------------------------

----------------------------------------D-I-I-S--------------------------------------------
Iteration    Energy (Eh)           Delta-E    RMSDP     MaxDP     DIISErr   Damp  Time(sec)
-------------------------------------------------------------------------------------------
               ***  Starting incremental Fock matrix formation  ***
    1    -605.2499986828009924     0.00e+00  1.41e-03  6.46e-02  2.84e-01  0.700   5.6
    2    -605.3635676683039719    -1.14e-01  8.27e-04  3.16e-02  1.02e-01  0.700   2.9
                               ***Turning on AO-DIIS***
    3    -605.3995618972681996    -3.60e-02  4.44e-04  2.45e-02  3.49e-02  0.700   2.7
    4    -605.4241043503685660    -2.45e-02  8.90e-04  7.56e-02  1.28e-02  0.000   2.7
    5    -605.4805005485937954    -5.64e-02  2.05e-04  1.98e-02  7.17e-03  0.000   2.8
                              *** Initializing SOSCF ***
---------------------------------------S-O-S-C-F--------------------------------------
Iteration    Energy (Eh)           Delta-E    RMSDP     MaxDP     MaxGrad    Time(sec)
--------------------------------------------------------------------------------------
    6    -605.4807168267346924    -2.16e-04  4.47e-05  2.66e-03  2.48e-03     2.6
               *** Restarting incremental Fock matrix formation ***
    7    -605.4807398750898528    -2.30e-05  4.13e-05  2.00e-03  5.90e-04     5.7
    8    -605.4807239867303679     1.59e-05  1.75e-05  1.13e-03  1.48e-03     4.2
    9    -605.4807456262427650    -2.16e-05  1.72e-05  1.77e-03  1.05e-04     3.9
   10    -605.4807451309226281     4.95e-07  9.04e-06  8.15e-04  1.86e-04     3.6
                 **** Energy Check signals convergence ****

               *****************************************************
               *                     SUCCESS                       *
               *           SCF CONVERGED AFTER  10 CYCLES          *
               *****************************************************

Recomputing exchange energy using gridx3       ... done (    9.059 sec)
Old exchange energy                            :    -13.446138561 Eh
New exchange energy                            :    -13.446115599 Eh
Exchange energy change after final integration :      0.000022962 Eh
Total energy after final integration           :   -605.480722169 Eh
             **** ENERGY FILE WAS UPDATED (scf.b97.en.tmp) ****

----------------
TOTAL SCF ENERGY
----------------

Total Energy       :       -605.48072216870742 Eh          -16475.96807 eV

Components:
Nuclear Repulsion  :        501.75517524376812 Eh           13653.45245 eV
Electronic Energy  :      -1107.23592037469098 Eh          -30129.42114 eV
One Electron Energy:      -1830.72885080240167 Eh          -49816.66466 eV
Two Electron Energy:        723.49293042771080 Eh           19687.24352 eV

Virial components:
Potential Energy   :      -1208.83633908701859 Eh          -32894.10909 eV
Kinetic Energy     :        603.35561691831117 Eh           16418.14102 eV
Virial Ratio       :          2.00352214380841

DFT components:
N(Alpha)           :       35.999957222005 electrons
N(Beta)            :       35.999957222005 electrons
N(Total)           :       71.999914444010 electrons
E(XC)              :      -58.603318016667 Eh       

---------------
SCF CONVERGENCE
---------------

  Last Energy change         ...   -4.9532e-07  Tolerance :   1.0000e-06
  Last MAX-Density change    ...    8.1522e-04  Tolerance :   1.0000e-05
  Last RMS-Density change    ...    9.0390e-06  Tolerance :   1.0000e-06
  Last DIIS Error            ...    2.4783e-03  Tolerance :   1.0000e-06
  Last Orbital Gradient      ...    1.8563e-04  Tolerance :   5.0000e-05
  Last Orbital Rotation      ...    1.6533e-04  Tolerance :   5.0000e-05


----------------
ORBITAL ENERGIES
----------------

  NO   OCC          E(Eh)            E(eV) 
   0   2.0000     -24.709530      -672.3805 
   1   2.0000     -24.709235      -672.3725 
   2   2.0000     -24.708573      -672.3545 
   3   2.0000     -19.190345      -522.1958 
   4   2.0000     -19.131333      -520.5900 
   5   2.0000     -10.427505      -283.7468 
   6   2.0000     -10.322905      -280.9005 
   7   2.0000     -10.240278      -278.6521 
   8   2.0000     -10.173578      -276.8371 
   9   2.0000      -1.338593       -36.4250 
  10   2.0000      -1.248656       -33.9776 
  11   2.0000      -1.247438       -33.9445 
  12   2.0000      -1.148264       -31.2459 
  13   2.0000      -1.061366       -28.8812 
  14   2.0000      -0.813281       -22.1305 
  15   2.0000      -0.752070       -20.4649 
  16   2.0000      -0.679075       -18.4786 
  17   2.0000      -0.628622       -17.1057 
  18   2.0000      -0.613796       -16.7022 
  19   2.0000      -0.610957       -16.6250 
  20   2.0000      -0.587557       -15.9882 
  21   2.0000      -0.524231       -14.2651 
  22   2.0000      -0.502190       -13.6653 
  23   2.0000      -0.486069       -13.2266 
  24   2.0000      -0.484898       -13.1947 
  25   2.0000      -0.469043       -12.7633 
  26   2.0000      -0.459602       -12.5064 
  27   2.0000      -0.448162       -12.1951 
  28   2.0000      -0.436914       -11.8890 
  29   2.0000      -0.425908       -11.5895 
  30   2.0000      -0.418248       -11.3811 
  31   2.0000      -0.408776       -11.1234 
  32   2.0000      -0.385265       -10.4836 
  33   2.0000      -0.378858       -10.3093 
  34   2.0000      -0.335522        -9.1300 
  35   2.0000      -0.311065        -8.4645 
  36   0.0000      -0.036738        -0.9997 
  37   0.0000      -0.000469        -0.0128 
  38   0.0000       0.025202         0.6858 
  39   0.0000       0.031403         0.8545 
  40   0.0000       0.040899         1.1129 
  41   0.0000       0.053509         1.4561 
  42   0.0000       0.062340         1.6963 
  43   0.0000       0.071274         1.9395 
  44   0.0000       0.071835         1.9547 
  45   0.0000       0.080820         2.1992 
  46   0.0000       0.086309         2.3486 
*Only the first 10 virtual orbitals were printed.

                    ********************************
                    * MULLIKEN POPULATION ANALYSIS *
                    ********************************

-----------------------
MULLIKEN ATOMIC CHARGES
-----------------------
   0 C :   -0.762283
   1 H :    0.248478
   2 H :    0.203411
   3 H :    0.206445
   4 C :   -0.026166
   5 H :    0.203750
   6 H :    0.206016
   7 O :   -0.176889
   8 C :    0.211722
   9 O :   -0.422591
  10 C :    0.813524
  11 F :   -0.241132
  12 F :   -0.221296
  13 F :   -0.242990
Sum of atomic charges:    0.0000000

--------------------------------
MULLIKEN REDUCED ORBITAL CHARGES
--------------------------------
  0 C s       :     3.261206  s :     3.261206
      pz      :     1.234917  p :     3.447230
      px      :     1.091877
      py      :     1.120436
      dz2     :     0.017959  d :     0.050651
      dxz     :    -0.011990
      dyz     :     0.023084
      dx2y2   :     0.005164
      dxy     :     0.016434
      f0      :     0.000351  f :     0.003197
      f+1     :     0.000064
      f-1     :     0.000918
      f+2     :    -0.000090
      f-2     :     0.000594
      f+3     :     0.000565
      f-3     :     0.000794

  1 H s       :     0.693952  s :     0.693952
      pz      :     0.013244  p :     0.057570
      px      :     0.031810
      py      :     0.012517

  2 H s       :     0.732038  s :     0.732038
      pz      :     0.030716  p :     0.064551
      px      :     0.011506
      py      :     0.022329

  3 H s       :     0.730134  s :     0.730134
      pz      :     0.032131  p :     0.063420
      px      :     0.010842
      py      :     0.020448

  4 C s       :     3.198276  s :     3.198276
      pz      :     1.120261  p :     2.750727
      px      :     0.673794
      py      :     0.956672
      dz2     :     0.000178  d :     0.067643
      dxz     :    -0.009563
      dyz     :     0.044685
      dx2y2   :     0.015775
      dxy     :     0.016569
      f0      :     0.001212  f :     0.009519
      f+1     :     0.000519
      f-1     :     0.001127
      f+2     :     0.000461
      f-2     :     0.001600
      f+3     :     0.002549
      f-3     :     0.002051

  5 H s       :     0.758401  s :     0.758401
      pz      :     0.016596  p :     0.037849
      px      :     0.016471
      py      :     0.004783

  6 H s       :     0.756076  s :     0.756076
      pz      :     0.014977  p :     0.037907
      px      :     0.015729
      py      :     0.007201

  7 O s       :     3.817808  s :     3.817808
      pz      :     1.692120  p :     4.347539
      px      :     1.126174
      py      :     1.529245
      dz2     :    -0.001864  d :     0.009403
      dxz     :     0.005149
      dyz     :     0.005133
      dx2y2   :    -0.014508
      dxy     :     0.015494
      f0      :     0.000295  f :     0.002138
      f+1     :     0.000379
      f-1     :     0.000165
      f+2     :     0.000088
      f-2     :     0.000290
      f+3     :     0.000442
      f-3     :     0.000479

  8 C s       :     3.194774  s :     3.194774
      pz      :     0.767761  p :     2.225850
      px      :     0.743736
      py      :     0.714353
      dz2     :     0.012583  d :     0.343623
      dxz     :     0.053487
      dyz     :     0.071631
      dx2y2   :     0.075769
      dxy     :     0.130153
      f0      :     0.002832  f :     0.024030
      f+1     :     0.001210
      f-1     :     0.001765
      f+2     :     0.002771
      f-2     :     0.002304
      f+3     :     0.009350
      f-3     :     0.003798

  9 O s       :     3.949332  s :     3.949332
      pz      :     1.377259  p :     4.433369
      px      :     1.785736
      py      :     1.270374
      dz2     :     0.002971  d :     0.037951
      dxz     :    -0.000618
      dyz     :     0.015619
      dx2y2   :     0.010989
      dxy     :     0.008991
      f0      :     0.000197  f :     0.001939
      f+1     :     0.000023
      f-1     :     0.000176
      f+2     :     0.000494
      f-2     :     0.000019
      f+3     :     0.000599
      f-3     :     0.000431

 10 C s       :     3.082205  s :     3.082205
      pz      :     0.475709  p :     1.591908
      px      :     0.591175
      py      :     0.525025
      dz2     :     0.107411  d :     0.471322
      dxz     :     0.088133
      dyz     :     0.082370
      dx2y2   :     0.087136
      dxy     :     0.106272
      f0      :     0.007780  f :     0.041040
      f+1     :     0.005116
      f-1     :     0.006243
      f+2     :     0.004696
      f-2     :     0.007646
      f+3     :     0.006122
      f-3     :     0.003437

 11 F s       :     3.999127  s :     3.999127
      pz      :     1.656595  p :     5.225867
      px      :     1.911156
      py      :     1.658116
      dz2     :     0.001203  d :     0.015386
      dxz     :     0.002016
      dyz     :     0.007375
      dx2y2   :     0.003570
      dxy     :     0.001222
      f0      :     0.000092  f :     0.000752
      f+1     :     0.000027
      f-1     :     0.000233
      f+2     :     0.000192
      f-2     :     0.000111
      f+3     :     0.000049
      f-3     :     0.000049

 12 F s       :     4.001599  s :     4.001599
      pz      :     1.885549  p :     5.205700
      px      :     1.559182
      py      :     1.760970
      dz2     :     0.001716  d :     0.013201
      dxz     :     0.001971
      dyz     :    -0.000082
      dx2y2   :     0.003167
      dxy     :     0.006429
      f0      :     0.000070  f :     0.000795
      f+1     :     0.000104
      f-1     :     0.000054
      f+2     :     0.000031
      f-2     :     0.000118
      f+3     :     0.000176
      f-3     :     0.000243

 13 F s       :     3.998643  s :     3.998643
      pz      :     1.522166  p :     5.228318
      px      :     1.906114
      py      :     1.800037
      dz2     :     0.004495  d :     0.015282
      dxz     :     0.002724
      dyz     :     0.005446
      dx2y2   :     0.001833
      dxy     :     0.000784
      f0      :     0.000186  f :     0.000747
      f+1     :     0.000091
      f-1     :     0.000277
      f+2     :     0.000088
      f-2     :     0.000085
      f+3     :     0.000012
      f-3     :     0.000009



                     *******************************
                     * LOEWDIN POPULATION ANALYSIS *
                     *******************************

----------------------
LOEWDIN ATOMIC CHARGES
----------------------
   0 C :   -0.062727
   1 H :    0.080943
   2 H :    0.081274
   3 H :    0.081117
   4 C :   -0.196730
   5 H :    0.129031
   6 H :    0.129849
   7 O :    0.037891
   8 C :   -0.409132
   9 O :    0.172118
  10 C :   -0.558986
  11 F :    0.168360
  12 F :    0.179098
  13 F :    0.167893

-------------------------------
LOEWDIN REDUCED ORBITAL CHARGES
-------------------------------
  0 C s       :     2.731806  s :     2.731806
      pz      :     0.975413  p :     2.879440
      px      :     0.944451
      py      :     0.959576
      dz2     :     0.059525  d :     0.424590
      dxz     :     0.039898
      dyz     :     0.135005
      dx2y2   :     0.089912
      dxy     :     0.100250
      f0      :     0.002433  f :     0.026891
      f+1     :     0.003141
      f-1     :     0.004688
      f+2     :     0.002710
      f-2     :     0.003953
      f+3     :     0.004128
      f-3     :     0.005838

  1 H s       :     0.702305  s :     0.702305
      pz      :     0.058244  p :     0.216752
      px      :     0.093196
      py      :     0.065312

  2 H s       :     0.702368  s :     0.702368
      pz      :     0.090406  p :     0.216358
      px      :     0.054288
      py      :     0.071664

  3 H s       :     0.702438  s :     0.702438
      pz      :     0.093078  p :     0.216445
      px      :     0.055127
      py      :     0.068239

  4 C s       :     2.679350  s :     2.679350
      pz      :     0.952905  p :     2.612959
      px      :     0.757163
      py      :     0.902890
      dz2     :     0.091902  d :     0.834844
      dxz     :     0.123285
      dyz     :     0.195886
      dx2y2   :     0.199839
      dxy     :     0.223932
      f0      :     0.007135  f :     0.069578
      f+1     :     0.007106
      f-1     :     0.006472
      f+2     :     0.006324
      f-2     :     0.008958
      f+3     :     0.016882
      f-3     :     0.016700

  5 H s       :     0.675291  s :     0.675291
      pz      :     0.088103  p :     0.195678
      px      :     0.047009
      py      :     0.060566

  6 H s       :     0.676234  s :     0.676234
      pz      :     0.084647  p :     0.193917
      px      :     0.045093
      py      :     0.064177

  7 O s       :     3.170150  s :     3.170150
      pz      :     1.488040  p :     4.255083
      px      :     1.267772
      py      :     1.499271
      dz2     :     0.053524  d :     0.529652
      dxz     :     0.107507
      dyz     :     0.052747
      dx2y2   :     0.155379
      dxy     :     0.160494
      f0      :     0.000614  f :     0.007224
      f+1     :     0.000895
      f-1     :     0.000349
      f+2     :     0.000130
      f-2     :     0.001211
      f+3     :     0.002345
      f-3     :     0.001681

  8 C s       :     2.614321  s :     2.614321
      pz      :     0.649841  p :     2.346096
      px      :     0.796394
      py      :     0.899860
      dz2     :     0.112365  d :     1.294683
      dxz     :     0.126019
      dyz     :     0.237173
      dx2y2   :     0.338734
      dxy     :     0.480392
      f0      :     0.010454  f :     0.154032
      f+1     :     0.008479
      f-1     :     0.012976
      f+2     :     0.020751
      f-2     :     0.013957
      f+3     :     0.059680
      f-3     :     0.027736

  9 O s       :     3.314244  s :     3.314244
      pz      :     1.242770  p :     4.275489
      px      :     1.553446
      py      :     1.479273
      dz2     :     0.030013  d :     0.231412
      dxz     :     0.005864
      dyz     :     0.042606
      dx2y2   :     0.076312
      dxy     :     0.076617
      f0      :     0.000521  f :     0.006736
      f+1     :     0.000116
      f-1     :     0.001042
      f+2     :     0.000996
      f-2     :     0.000079
      f+3     :     0.001989
      f-3     :     0.001992

 10 C s       :     2.577653  s :     2.577653
      pz      :     0.687239  p :     2.191027
      px      :     0.775066
      py      :     0.728723
      dz2     :     0.337082  d :     1.522917
      dxz     :     0.242867
      dyz     :     0.346734
      dx2y2   :     0.260980
      dxy     :     0.335254
      f0      :     0.044817  f :     0.267389
      f+1     :     0.033930
      f-1     :     0.047747
      f+2     :     0.037243
      f-2     :     0.042802
      f+3     :     0.033525
      f-3     :     0.027324

 11 F s       :     3.539014  s :     3.539014
      pz      :     1.649311  p :     5.084210
      px      :     1.783178
      py      :     1.651721
      dz2     :     0.057276  d :     0.206668
      dxz     :     0.027011
      dyz     :     0.052074
      dx2y2   :     0.027158
      dxy     :     0.043150
      f0      :     0.000242  f :     0.001747
      f+1     :     0.000059
      f-1     :     0.000498
      f+2     :     0.000419
      f-2     :     0.000293
      f+3     :     0.000135
      f-3     :     0.000101

 12 F s       :     3.529956  s :     3.529956
      pz      :     1.764281  p :     5.074546
      px      :     1.604403
      py      :     1.705863
      dz2     :     0.026056  d :     0.214566
      dxz     :     0.033154
      dyz     :     0.034176
      dx2y2   :     0.059787
      dxy     :     0.061394
      f0      :     0.000165  f :     0.001833
      f+1     :     0.000239
      f-1     :     0.000119
      f+2     :     0.000057
      f-2     :     0.000285
      f+3     :     0.000458
      f-3     :     0.000509

 13 F s       :     3.540387  s :     3.540387
      pz      :     1.580568  p :     5.085294
      px      :     1.780730
      py      :     1.723996
      dz2     :     0.062094  d :     0.204690
      dxz     :     0.043375
      dyz     :     0.060705
      dx2y2   :     0.012077
      dxy     :     0.026440
      f0      :     0.000455  f :     0.001735
      f+1     :     0.000220
      f-1     :     0.000584
      f+2     :     0.000190
      f-2     :     0.000236
      f+3     :     0.000034
      f-3     :     0.000017


------------------------------------------
LOEWDIN REDUCED ORBITAL POPULATIONS PER MO
-------------------------------------------
THRESHOLD FOR PRINTING IS 0.1%%
                      0         1         2         3         4         5   
                 -24.70953 -24.70924 -24.70857 -19.19034 -19.13133 -10.42751
                   2.00000   2.00000   2.00000   2.00000   2.00000   2.00000
                  --------  --------  --------  --------  --------  --------
 7 O  s               0.0       0.0       0.0      99.6       0.0       0.0
 8 C  dx2y2           0.0       0.0       0.0       0.0       0.1       0.0
 8 C  dxy             0.0       0.0       0.0       0.1       0.0       0.1
 9 O  s               0.0       0.0       0.0       0.0      99.5       0.0
10 C  s               0.0       0.0       0.0       0.0       0.0      98.4
11 F  s               0.0      99.8       0.0       0.0       0.0       0.0
11 F  dyz             0.0       0.0       0.0       0.0       0.0       0.2
12 F  s               0.0       0.0      99.8       0.0       0.0       0.0
12 F  dxy             0.0       0.0       0.0       0.0       0.0       0.2
13 F  s              99.9       0.0       0.0       0.0       0.0       0.0
13 F  pz              0.0       0.0       0.0       0.0       0.0       0.1
13 F  dz2             0.0       0.0       0.0       0.0       0.0       0.1
13 F  dyz             0.0       0.0       0.0       0.0       0.0       0.1

                      6         7         8         9        10        11   
                 -10.32291 -10.24028 -10.17358  -1.33859  -1.24866  -1.24744
                   2.00000   2.00000   2.00000   2.00000   2.00000   2.00000
                  --------  --------  --------  --------  --------  --------
 0 C  s               0.0       0.0      99.2       0.0       0.0       0.0
 0 C  dxy             0.0       0.2       0.0       0.0       0.0       0.0
 4 C  s               0.0      99.0       0.0       0.0       0.0       0.0
 4 C  dxy             0.0       0.0       0.2       0.0       0.0       0.0
 7 O  s               0.0       0.0       0.0       0.2       0.1       0.0
 7 O  px              0.1       0.1       0.0       0.8       0.0       0.0
 7 O  dxz             0.0       0.0       0.0       0.0       0.0       0.1
 7 O  dx2y2           0.0       0.0       0.0       0.2       0.1       0.0
 7 O  dxy             0.2       0.1       0.0       0.0       0.1       0.0
 8 C  s              98.5       0.0       0.0       1.2       0.0       0.0
 8 C  pz              0.0       0.0       0.0       0.0       0.0       0.3
 8 C  px              0.0       0.0       0.0       1.0       0.1       0.0
 8 C  py              0.0       0.0       0.0       0.6       0.3       0.0
 8 C  dz2             0.0       0.0       0.0       0.6       0.0       0.0
 8 C  dxz             0.0       0.0       0.0       0.0       0.0       0.7
 8 C  dyz             0.0       0.0       0.0       0.0       0.0       0.7
 8 C  dx2y2           0.0       0.0       0.0       0.2       1.1       0.0
 8 C  dxy             0.0       0.0       0.0       1.4       0.2       0.0
 9 O  s               0.0       0.0       0.0       0.1       0.0       0.0
 9 O  px              0.0       0.0       0.0       0.2       0.1       0.0
 9 O  py              0.2       0.0       0.0       0.5       0.0       0.0
 9 O  dz2             0.1       0.0       0.0       0.1       0.0       0.0
 9 O  dx2y2           0.3       0.0       0.0       0.0       0.0       0.0
 9 O  dxy             0.0       0.0       0.0       0.1       0.1       0.0
10 C  s               0.0       0.0       0.0      13.9       0.0       0.0
10 C  pz              0.0       0.0       0.0       0.0       0.4      14.2
10 C  px              0.0       0.0       0.0       1.9       4.9       0.1
10 C  py              0.0       0.0       0.0       0.8       9.6       0.3
10 C  dz2             0.0       0.0       0.0       0.3       4.0       0.7
10 C  dxz             0.0       0.0       0.0       0.0       0.6       0.0
10 C  dyz             0.0       0.0       0.0       0.0       0.3       8.6
10 C  dx2y2           0.0       0.0       0.0       0.1       1.8       0.2
10 C  dxy             0.1       0.0       0.0       1.0       2.7       0.1
10 C  f0              0.0       0.0       0.0       0.3       0.0       0.0
10 C  f+1             0.0       0.0       0.0       0.0       0.2       0.0
10 C  f-1             0.0       0.0       0.0       1.2       0.2       0.0
10 C  f+2             0.0       0.0       0.0       0.0       0.1       0.7
10 C  f-2             0.0       0.0       0.0       0.1       0.0       0.0
10 C  f-3             0.0       0.0       0.0       0.5       0.3       0.0
11 F  s               0.0       0.0       0.0      19.4      12.7      33.2
11 F  pz              0.0       0.0       0.0       1.6       0.3       0.4
11 F  px              0.0       0.0       0.0       0.2       0.2       0.0
11 F  py              0.0       0.0       0.0       1.2       0.2       0.4
11 F  dz2             0.0       0.0       0.0       0.2       0.5       0.5
11 F  dxz             0.0       0.0       0.0       0.1       0.1       0.0
11 F  dyz             0.0       0.0       0.0       0.7       0.0       0.0
11 F  dx2y2           0.0       0.0       0.0       0.1       0.1       0.0
11 F  dxy             0.0       0.0       0.0       0.2       0.3       0.0
12 F  s               0.0       0.0       0.0      20.7      44.0       0.0
12 F  pz              0.0       0.0       0.0       0.1       0.0       0.6
12 F  px              0.0       0.0       0.0       1.5       0.6       0.0
12 F  py              0.0       0.0       0.0       1.4       0.3       0.0
12 F  dz2             0.0       0.0       0.0       0.2       0.0       0.1
12 F  dxz             0.0       0.0       0.0       0.1       0.0       0.6
12 F  dyz             0.0       0.0       0.0       0.1       0.0       0.6
12 F  dxy             0.0       0.0       0.0       1.1       0.2       0.0
13 F  s               0.0       0.0       0.0      19.3      11.0      35.1
13 F  pz              0.0       0.0       0.0       2.5       0.2       0.5
13 F  px              0.0       0.0       0.0       0.0       0.2       0.0
13 F  py              0.0       0.0       0.0       0.4       0.3       0.3
13 F  dz2             0.0       0.0       0.0       0.9       0.2       0.4
13 F  dxz             0.0       0.0       0.0       0.0       0.4       0.0
13 F  dyz             0.0       0.0       0.0       0.4       0.4       0.1
13 F  dxy             0.0       0.0       0.0       0.0       0.1       0.0

                     12        13        14        15        16        17   
                  -1.14826  -1.06137  -0.81328  -0.75207  -0.67907  -0.62862
                   2.00000   2.00000   2.00000   2.00000   2.00000   2.00000
                  --------  --------  --------  --------  --------  --------
 0 C  s               0.3       0.2      12.4       8.2      10.3       4.2
 0 C  px              0.4       0.3       1.3       0.0       1.4       1.4
 0 C  py              0.0       0.0       1.0       0.1       0.4       2.2
 0 C  dz2             0.2       0.1       0.3       0.0       0.2       0.2
 0 C  dx2y2           0.4       0.2       0.0       0.1       0.1       0.1
 0 C  dxy             0.3       0.1       0.7       0.0       0.4       0.8
 1 H  s               0.0       0.0       2.2       2.1       4.0       1.7
 1 H  px              0.1       0.0       1.7       0.8       0.5       0.1
 1 H  py              0.0       0.0       0.0       0.1       0.5       0.6
 2 H  s               0.0       0.0       2.2       1.7       3.2       2.2
 2 H  pz              0.0       0.0       0.7       0.5       0.7       0.4
 2 H  px              0.1       0.1       0.1       0.0       0.1       0.1
 2 H  py              0.0       0.0       0.9       0.4       0.2       0.0
 3 H  s               0.0       0.0       2.2       1.7       3.2       2.2
 3 H  pz              0.0       0.0       0.9       0.5       0.7       0.4
 3 H  px              0.1       0.0       0.1       0.0       0.2       0.1
 3 H  py              0.0       0.0       0.8       0.3       0.1       0.0
 4 C  s               3.1       1.4      15.9       1.8       1.9       5.3
 4 C  px              3.6       1.2       1.0       3.4       4.7       0.1
 4 C  py              0.5       0.7       0.9       0.2       0.6       2.9
 4 C  dz2             1.0       0.3       0.1       0.1       0.5       0.7
 4 C  dx2y2           1.6       0.2       0.2       0.1       0.2       0.1
 4 C  dxy             0.8       1.2       1.0       0.9       1.6       0.6
 4 C  f-1             0.0       0.0       0.1       0.0       0.0       0.0
 4 C  f-3             0.2       0.1       0.1       0.0       0.0       0.0
 5 H  s               0.4       0.1       2.8       0.4       0.5       2.9
 5 H  pz              0.3       0.1       1.0       0.1       0.1       0.4
 5 H  px              0.6       0.0       0.1       0.2       0.2       0.0
 5 H  py              0.2       0.2       0.8       0.2       0.1       0.1
 6 H  s               0.4       0.1       2.8       0.4       0.6       2.9
 6 H  pz              0.3       0.0       0.8       0.1       0.1       0.4
 6 H  px              0.5       0.0       0.1       0.2       0.2       0.0
 6 H  py              0.3       0.2       0.9       0.2       0.1       0.1
 7 O  s              30.1      15.7       0.4       1.4       0.1       1.1
 7 O  px              0.5       0.5      17.3       0.4      11.8       1.6
 7 O  py              2.8       0.5       0.2       0.2       0.3       0.5
 7 O  dz2             0.7       0.1       0.2       0.4       0.0       0.2
 7 O  dx2y2           0.0       0.4       0.1       2.3       0.4       0.4
 7 O  dxy             0.5       1.3       1.0       0.0       0.9       0.9
 8 C  s              14.3       2.7       3.1       1.5       2.0       0.9
 8 C  pz              0.0       0.1       0.0       0.0       0.0       0.0
 8 C  px              3.9       3.3       0.4       5.9       0.2       6.0
 8 C  py              0.3      19.6       5.3       2.5       1.9       0.4
 8 C  dz2             2.2       0.1       0.2       0.0       0.2       0.0
 8 C  dx2y2           0.1       5.2       0.5       0.2       0.3       1.2
 8 C  dxy             2.1       0.8       0.0       1.2       0.2       0.5
 8 C  f+1             0.1       0.1       0.0       0.1       0.0       0.0
 8 C  f-1             0.0       0.4       0.1       0.0       0.0       0.0
 8 C  f-3             1.0       0.1       0.0       0.0       0.0       0.0
 9 O  s              12.0      34.0       1.3       0.9       0.3       1.1
 9 O  px              0.4       0.2       0.3       0.7       0.1       1.0
 9 O  py              3.7       3.7       0.5       0.5       0.4       1.0
 9 O  dz2             0.5       0.1       0.1       0.1       0.0       0.2
 9 O  dx2y2           0.7       0.2       0.6       0.3       0.2       0.0
 9 O  dxy             0.6       0.3       0.1       0.5       0.0       0.3
10 C  s               0.4       0.1       1.7       9.7       2.7       0.2
10 C  px              1.5       0.0       2.2       2.7       3.9       5.6
10 C  py              0.6       0.4       0.6       1.3       0.9       9.0
10 C  dz2             0.8       0.0       0.2       0.2       0.0       0.5
10 C  dx2y2           0.5       1.1       0.4       0.0       0.1       0.2
10 C  dxy             1.1       0.8       0.2       0.6       0.3       0.1
11 F  s               0.2       0.0       0.7       3.5       1.4       0.9
11 F  pz              0.0       0.0       0.4       3.5       4.0       7.9
11 F  px              0.3       0.0       0.2       0.2       1.7       3.2
11 F  py              0.2       0.0       0.7       5.1       2.2       0.5
11 F  dz2             0.0       0.0       0.0       0.0       0.1       0.2
11 F  dxz             0.1       0.0       0.1       0.1       0.2       0.2
11 F  dyz             0.0       0.0       0.2       0.7       0.1       0.1
11 F  dx2y2           0.0       0.0       0.0       0.3       0.0       0.2
11 F  dxy             0.1       0.0       0.1       0.1       0.2       0.2
12 F  s               0.1       0.2       0.4       3.7       2.5       0.0
12 F  pz              0.0       0.0       0.0       0.2       0.4       0.0
12 F  px              0.4       0.2       0.8       7.8       4.6       1.7
12 F  py              0.0       0.1       0.0       1.1       6.4       5.3
12 F  dz2             0.0       0.0       0.0       0.3       0.1       0.0
12 F  dx2y2           0.1       0.1       0.2       0.7       0.1       0.8
12 F  dxy             0.0       0.1       0.0       0.2       0.3       0.1
13 F  s               0.2       0.0       0.7       3.6       1.5       0.7
13 F  pz              0.1       0.0       0.5       5.5       6.8       8.7
13 F  px              0.3       0.0       0.3       0.8       0.7       1.6
13 F  py              0.1       0.0       0.4       2.7       0.7       0.3
13 F  dz2             0.0       0.0       0.0       0.1       0.3       0.3
13 F  dxz             0.1       0.0       0.2       0.3       0.1       0.2
13 F  dyz             0.0       0.0       0.2       0.6       0.1       0.1
13 F  dxy             0.0       0.0       0.1       0.1       0.1       0.1

                     18        19        20        21        22        23   
                  -0.61380  -0.61096  -0.58756  -0.52423  -0.50219  -0.48607
                   2.00000   2.00000   2.00000   2.00000   2.00000   2.00000
                  --------  --------  --------  --------  --------  --------
 0 C  s               0.0       0.6       0.0       0.0       0.1       0.0
 0 C  pz              0.0       0.0       0.0       6.2       0.0       0.2
 0 C  px              0.0       0.1       0.7       0.0       0.0       0.0
 0 C  py              0.0       1.0       1.8       0.0       1.7       0.4
 0 C  dxz             0.0       0.0       0.0       1.1       0.0       0.0
 0 C  dyz             0.0       0.0       0.0       0.2       0.0       0.0
 0 C  dx2y2           0.0       0.1       1.0       0.0       0.1       0.0
 0 C  dxy             0.0       0.2       0.3       0.0       0.0       0.0
 1 H  s               0.0       0.1       0.4       0.0       0.1       0.0
 1 H  pz              0.0       0.0       0.0       0.5       0.0       0.0
 1 H  py              0.0       0.2       0.1       0.0       0.1       0.0
 2 H  s               0.0       0.5       0.2       1.2       0.4       0.2
 2 H  pz              0.0       0.1       0.0       0.2       0.0       0.0
 2 H  px              0.0       0.0       0.1       0.0       0.0       0.0
 2 H  py              0.0       0.0       0.1       0.1       0.0       0.0
 3 H  s               0.0       0.5       0.2       1.3       0.3       0.0
 3 H  pz              0.0       0.1       0.0       0.2       0.0       0.0
 3 H  px              0.0       0.0       0.1       0.0       0.0       0.0
 3 H  py              0.0       0.0       0.1       0.2       0.1       0.0
 4 C  s               0.0       1.7       1.8       0.0       0.3       0.0
 4 C  pz              0.1       0.0       0.0      21.5       0.0       0.4
 4 C  px              0.0       0.2       2.2       0.1       2.6       0.4
 4 C  py              0.0       2.4      11.9       0.0       1.3       0.1
 4 C  dz2             0.0       0.2       0.5       0.0       0.1       0.0
 4 C  dxz             0.0       0.0       0.0       0.4       0.0       0.0
 4 C  dx2y2           0.0       0.0       0.4       0.0       0.1       0.0
 4 C  dxy             0.0       0.0       1.1       0.0       0.0       0.1
 4 C  f+3             0.0       0.0       0.1       0.0       0.0       0.0
 5 H  s               0.0       1.4       3.7       5.0       0.6       0.0
 5 H  pz              0.0       0.2       0.6       0.5       0.1       0.0
 5 H  py              0.0       0.0       0.1       0.4       0.1       0.0
 6 H  s               0.0       1.4       3.5       5.0       0.7       0.3
 6 H  pz              0.0       0.2       0.6       0.5       0.1       0.0
 6 H  py              0.0       0.0       0.1       0.4       0.0       0.0
 7 O  s               0.0       0.9       3.4       0.0       0.7       0.1
 7 O  pz              0.4       0.0       0.2      26.3       0.0       0.0
 7 O  px              0.0       0.3      15.9       0.1       4.2       0.4
 7 O  py              0.0       0.7      12.2       0.1       5.9       0.7
 7 O  dz2             0.0       0.1       0.1       0.0       0.0       0.0
 7 O  dxz             0.1       0.0       0.0       0.2       0.0       0.1
 7 O  dyz             0.0       0.0       0.0       0.8       0.0       0.0
 7 O  dx2y2           0.0       0.0       0.3       0.0       0.0       0.0
 7 O  dxy             0.0       0.6       0.6       0.0       0.5       0.1
 8 C  s               0.0       0.1       1.4       0.0       3.1       0.0
 8 C  pz              1.5       0.0       0.0      10.2       0.0       0.0
 8 C  px              0.0       0.1       7.6       0.0       0.1       0.1
 8 C  py              0.0       0.2       0.2       0.0       5.8       0.0
 8 C  dz2             0.0       0.1       0.3       0.0       1.0       0.2
 8 C  dxz             0.3       0.0       0.0       1.8       0.0       0.0
 8 C  dyz             0.2       0.0       0.0       0.0       0.1       0.0
 8 C  dx2y2           0.0       0.4       0.5       0.0       4.0       0.1
 8 C  dxy             0.0       0.5       1.4       0.0       0.3       0.4
 8 C  f0              0.1       0.0       0.0       0.2       0.0       0.0
 8 C  f-2             0.0       0.0       0.0       0.2       0.0       0.0
 8 C  f+3             0.0       0.1       0.1       0.0       0.2       0.0
 9 O  s               0.0       0.0       1.1       0.0      13.3       0.0
 9 O  pz              0.4       0.0       0.0       5.7       0.2       0.0
 9 O  px              0.0       0.2       3.5       0.0       0.1       0.5
 9 O  py              0.0       0.0       1.2       0.0      44.9       0.1
 9 O  dz2             0.0       0.0       0.0       0.0       0.2       0.0
 9 O  dxz             0.0       0.0       0.0       0.1       0.0       0.0
 9 O  dyz             0.2       0.0       0.0       0.8       0.0       0.0
 9 O  dx2y2           0.0       0.0       0.0       0.0       0.5       0.0
 9 O  dxy             0.0       0.1       0.6       0.0       0.0       0.0
10 C  s               0.0       0.0       0.1       0.0       0.0       0.0
10 C  pz             17.2       0.1       0.0       0.2       0.0       0.2
10 C  px              0.1       6.1       3.2       0.0       0.1       0.2
10 C  py              0.1       8.6       0.1       0.0       0.1       0.5
10 C  dz2             0.4       1.2       0.1       0.0       0.1       6.3
10 C  dxz             0.1       0.2       0.0       2.1       0.0       0.4
10 C  dyz             2.6       0.2       0.0       0.1       0.0       0.4
10 C  dx2y2           0.0       0.2       0.4       0.0       0.4       2.9
10 C  dxy             0.1       0.6       0.6       0.0       0.5       0.2
10 C  f-3             0.0       0.0       0.0       0.0       0.0       0.2
11 F  s               2.8       1.1       0.0       0.0       0.0       0.0
11 F  pz              4.5      12.3       0.4       0.1       0.4      12.2
11 F  px              0.2       1.8       2.4       1.8       1.3       1.7
11 F  py             22.3       0.9       0.3       0.1       0.2      20.1
11 F  dz2             0.2       0.2       0.0       0.0       0.0       0.0
11 F  dyz             0.2       0.1       0.0       0.0       0.0       0.0
11 F  dx2y2           0.1       0.0       0.0       0.0       0.0       0.0
12 F  s               0.0       3.9       0.3       0.0       0.0       0.2
12 F  pz              8.8       1.3       0.3       0.8       0.3       3.4
12 F  px              0.6      24.6       0.5       0.0       0.6      10.2
12 F  py              0.4       7.0       5.1       0.1       0.5       2.3
12 F  dz2             0.1       0.1       0.0       0.0       0.0       0.1
12 F  dxz             0.5       0.0       0.0       0.0       0.0       0.0
12 F  dyz             0.2       0.0       0.0       0.0       0.0       0.0
12 F  dx2y2           0.0       0.1       0.1       0.0       0.0       0.0
12 F  dxy             0.0       0.2       0.0       0.0       0.0       0.1
13 F  s               3.5       0.6       0.0       0.0       0.0       0.2
13 F  pz             16.7       7.1       0.0       0.7       0.4       0.8
13 F  px              0.2       4.1       2.6       1.4       0.1       1.5
13 F  py             14.2       0.5       0.0       0.0       0.4      30.3
13 F  dz2             0.2       0.1       0.0       0.0       0.0       0.0
13 F  dxz             0.0       0.2       0.1       0.0       0.0       0.0
13 F  dyz             0.2       0.1       0.0       0.0       0.0       0.0

                     24        25        26        27        28        29   
                  -0.48490  -0.46904  -0.45960  -0.44816  -0.43691  -0.42591
                   2.00000   2.00000   2.00000   2.00000   2.00000   2.00000
                  --------  --------  --------  --------  --------  --------
 0 C  s               0.0       0.2       0.0       0.0       0.0       0.0
 0 C  pz              1.2       0.0       8.7       0.0       8.8       0.1
 0 C  px              0.0       3.3       0.0       0.5       0.0       0.0
 0 C  py              0.0       5.0       0.0       0.0       0.0       0.0
 0 C  dz2             0.0       0.2       0.0       0.0       0.0       0.0
 0 C  dxz             0.1       0.0       0.1       0.0       0.0       0.0
 0 C  dyz             0.0       0.0       0.0       0.0       0.2       0.0
 0 C  dxy             0.0       0.2       0.0       0.0       0.0       0.0
 1 H  s               0.0       0.5       0.0       0.3       0.0       0.0
 1 H  pz              0.1       0.0       0.6       0.0       0.5       0.0
 1 H  py              0.0       0.4       0.0       0.0       0.0       0.0
 2 H  s               0.2       1.2       2.2       0.0       2.8       0.0
 2 H  pz              0.0       0.1       0.2       0.0       0.2       0.0
 2 H  px              0.0       0.2       0.0       0.0       0.0       0.0
 2 H  py              0.0       0.1       0.1       0.0       0.1       0.0
 3 H  s               0.4       1.1       2.5       0.0       2.7       0.0
 3 H  pz              0.0       0.1       0.2       0.0       0.2       0.0
 3 H  px              0.0       0.3       0.0       0.0       0.0       0.0
 3 H  py              0.0       0.1       0.1       0.0       0.1       0.0
 4 C  s               0.0       0.4       0.0       0.0       0.0       0.0
 4 C  pz              1.9       0.0       6.1       0.0       1.8       0.0
 4 C  px              0.1       6.5       0.1       0.1       0.0       0.0
 4 C  py              0.0       0.6       0.0       0.2       0.0       0.0
 4 C  dxz             0.0       0.0       1.4       0.0       1.7       0.0
 4 C  dx2y2           0.0       0.3       0.0       0.0       0.0       0.0
 4 C  dxy             0.0       1.1       0.0       0.0       0.0       0.0
 5 H  s               0.6       0.0       1.7       0.0       0.5       0.0
 5 H  pz              0.0       0.0       0.1       0.0       0.0       0.0
 5 H  px              0.0       0.2       0.1       0.0       0.1       0.0
 5 H  py              0.0       0.1       0.1       0.0       0.0       0.0
 6 H  s               0.4       0.0       1.7       0.0       0.5       0.0
 6 H  pz              0.1       0.0       0.2       0.0       0.0       0.0
 6 H  px              0.0       0.2       0.1       0.0       0.1       0.0
 6 H  py              0.0       0.1       0.1       0.0       0.0       0.0
 7 O  s               0.0       0.7       0.0       0.1       0.0       0.0
 7 O  pz              0.1       0.0       1.6       0.0       5.5       0.0
 7 O  px              0.1       1.0       0.0       0.1       0.0       0.0
 7 O  py              0.0      15.3       0.0       0.4       0.0       0.0
 7 O  dxz             0.6       0.0       2.6       0.0       0.6       0.0
 7 O  dyz             0.1       0.0       0.0       0.0       0.2       0.1
 7 O  dx2y2           0.0       0.5       0.0       0.0       0.0       0.0
 8 C  s               0.0       0.8       0.0       0.0       0.0       0.0
 8 C  pz              0.1       0.0       7.9       0.0       7.8       0.1
 8 C  px              0.0       3.8       0.1       0.2       0.0       0.0
 8 C  py              0.0       0.4       0.0       0.7       0.0       0.0
 8 C  dxz             0.1       0.0       0.5       0.0       0.4       0.0
 8 C  dyz             0.1       0.0       0.2       0.0       1.1       0.0
 8 C  dx2y2           0.0       0.6       0.0       0.5       0.0       0.0
 8 C  dxy             0.0       1.6       0.0       0.4       0.0       0.0
 8 C  f0              0.0       0.0       0.1       0.0       0.1       0.0
 9 O  s               0.1       0.3       0.0       0.2       0.0       0.0
 9 O  pz              0.0       0.0       8.4       0.0      10.7       0.1
 9 O  px              0.0       4.6       0.1       1.1       0.1       0.0
 9 O  py              0.3       2.9       0.0       1.5       0.0       0.0
 9 O  dyz             0.0       0.0       0.5       0.0       0.4       0.0
 9 O  dx2y2           0.0       0.3       0.0       0.1       0.0       0.0
[...]
13 F  f-1             0.0       0.2       0.1       0.0       0.2       0.2
13 F  f+2             0.1       0.0       0.0       1.6       0.0       0.4
13 F  f-2             0.0       0.1       0.1       0.1       0.3       0.3
13 F  f-3             0.0       0.0       0.0       0.4       0.0       0.0

                    378       379       380       381       382       383   
                   8.88045   9.13776   9.16678   9.18215   9.32138   9.33722
                   0.00000   0.00000   0.00000   0.00000   0.00000   0.00000
                  --------  --------  --------  --------  --------  --------
 8 C  s               0.1       0.0       0.0       0.1       0.0       0.0
 8 C  pz              0.0       0.1       0.0       0.0       0.0       0.0
 8 C  px              0.1       0.0       0.1       0.0       0.0       0.0
 8 C  py              0.0       0.0       0.1       0.2       0.0       0.0
 8 C  dxy             0.0       0.0       0.0       0.1       0.0       0.0
10 C  s               0.2       0.0       0.8       2.7       0.0       0.0
10 C  pz              0.0       0.0       0.0       0.0       3.9       0.0
10 C  px              0.5       0.0       0.1       0.7       0.0       1.4
10 C  py              0.3       0.0       0.1       0.4       0.0       2.7
10 C  dz2             0.2       0.1       1.0       0.2       0.1       0.4
10 C  dxz             0.0       2.7       0.0       0.0       0.1       0.1
10 C  dyz             0.0       0.2       0.2       0.0       1.0       0.1
10 C  dx2y2           0.1       0.0       1.5       0.5       0.0       0.3
10 C  dxy             0.4       0.1       0.0       0.2       0.0       0.3
10 C  f+1             0.1       0.0       0.0       0.0       0.0       0.0
10 C  f-1             0.1       0.0       0.0       0.2       0.0       0.0
10 C  f+2             0.0       0.1       0.0       0.0       0.0       0.0
11 F  s               0.0       0.0       0.2       0.7       1.7       0.7
11 F  pz              0.0       0.0       0.0       0.6       0.7       0.5
11 F  px              0.1       0.4       0.0       0.0       0.0       0.0
11 F  py              0.1       0.0       0.5       0.0       0.9       0.3
11 F  dz2             4.2       0.8      15.7      15.8       0.9       2.8
11 F  dxz             8.2       6.1       0.0       0.4       0.4       0.4
11 F  dyz             1.3       0.8       8.0      12.0      29.0      10.5
11 F  dx2y2           3.4       0.2       6.4       1.9       5.6       3.4
11 F  dxy            12.4      17.7       1.2       0.5       0.7       0.1
11 F  f0              0.3       0.0       1.5       0.2       0.1       0.0
11 F  f-1             0.0       0.2       0.0       0.7       1.2       0.4
11 F  f+2             0.3       0.2       0.4       0.2       1.0       0.6
11 F  f-2             0.5       0.7       0.0       0.0       0.1       0.0
11 F  f+3             0.3       0.6       0.1       0.0       0.0       0.0
11 F  f-3             0.1       0.1       0.0       0.1       0.1       0.1
12 F  s               0.0       0.0       0.1       0.7       0.0       2.6
12 F  pz              0.0       0.6       0.0       0.0       0.0       0.1
12 F  px              0.1       0.0       0.1       0.5       0.0       1.7
12 F  py              0.1       0.0       0.4       0.1       0.0       0.8
12 F  dz2             0.9       3.7       0.1       4.2       0.5      12.2
12 F  dxz             0.1      13.1       0.0       1.8       0.0       3.1
12 F  dyz             0.6      18.5       0.5       0.4       1.3       1.6
12 F  dx2y2          29.0       0.0      11.3       8.8       0.0       5.5
12 F  dxy             3.5       1.0      13.8      10.6       0.4      30.9
12 F  f0              0.0       0.5       0.0       0.1       0.0       0.2
12 F  f+1             0.3       0.2       0.1       0.3       0.0       0.8
12 F  f-1             0.0       0.3       0.0       0.1       0.0       0.3
12 F  f-2             0.0       1.3       0.0       0.1       0.0       0.4
12 F  f+3             1.5       0.0       1.1       0.1       0.0       0.2
12 F  f-3             0.2       0.0       0.0       0.9       0.0       2.1
13 F  s               0.0       0.1       0.2       0.6       2.0       0.4
13 F  pz              0.0       0.0       0.0       0.6       1.4       0.4
13 F  px              0.1       0.4       0.0       0.0       0.0       0.0
13 F  py              0.1       0.0       0.6       0.0       0.5       0.0
13 F  dz2             4.9       0.2       2.7      26.8      17.3       6.4
13 F  dxz            10.5      15.0       0.3       0.6       0.3       0.4
13 F  dyz             3.9       0.1      26.0       2.0      24.4       2.2
13 F  dx2y2           0.5       0.1       1.9       0.4       0.9       0.7
13 F  dxy             8.0      11.2       0.0       0.3       0.1       0.6
13 F  f0              0.2       0.1       0.7       0.8       0.5       0.2
13 F  f+1             0.2       0.4       0.0       0.1       0.1       0.0
13 F  f-1             0.2       0.0       1.2       0.2       2.1       0.3
13 F  f+2             0.1       0.0       0.2       0.1       0.3       0.2
13 F  f-2             0.7       1.2       0.0       0.0       0.0       0.0
13 F  f+3             0.1       0.2       0.0       0.0       0.0       0.0

                    384       385       386       387       388       389   
                  22.52137  22.68896  22.97424  23.64876  44.27441  44.49543
                   0.00000   0.00000   0.00000   0.00000   0.00000   0.00000
                  --------  --------  --------  --------  --------  --------
 0 C  s              97.9       0.6       0.0       0.0       0.0       0.0
 1 H  s               0.2       0.0       0.0       0.0       0.0       0.0
 2 H  s               0.2       0.0       0.0       0.0       0.0       0.0
 3 H  s               0.2       0.0       0.0       0.0       0.0       0.0
 4 C  s               0.7      97.2       0.0       0.3       0.0       0.1
 5 H  s               0.0       0.2       0.0       0.0       0.0       0.0
 6 H  s               0.0       0.2       0.0       0.0       0.0       0.0
 7 O  s               0.0       0.2       0.0       0.5       0.9      98.7
 7 O  px              0.0       0.1       0.0       0.4       0.0       0.0
 7 O  py              0.0       0.0       0.0       0.2       0.0       0.0
 7 O  dxy             0.0       0.1       0.0       0.2       0.0       0.0
 8 C  s               0.0       0.3       0.0      95.2       0.1       0.0
 8 C  px              0.0       0.0       0.0       0.2       0.0       0.0
 8 C  py              0.0       0.0       0.0       0.2       0.1       0.0
 8 C  dz2             0.0       0.0       0.0       0.2       0.0       0.0
 8 C  dxy             0.0       0.0       0.1       0.1       0.0       0.0
 9 O  s               0.0       0.0       0.0       1.1      98.8       0.9
 9 O  py              0.0       0.0       0.0       0.7       0.0       0.0
10 C  s               0.0       0.1      96.6       0.1       0.0       0.0
11 F  s               0.0       0.0       0.3       0.0       0.0       0.0
11 F  pz              0.0       0.0       0.2       0.0       0.0       0.0
11 F  py              0.0       0.0       0.2       0.0       0.0       0.0
11 F  dyz             0.0       0.0       0.1       0.0       0.0       0.0
12 F  s               0.0       0.0       0.3       0.0       0.0       0.0
12 F  px              0.0       0.0       0.2       0.0       0.0       0.0
13 F  s               0.0       0.0       0.3       0.0       0.0       0.0
13 F  pz              0.0       0.0       0.2       0.0       0.0       0.0

                    390       391       392   
                  57.52024  57.56895  57.68511
                   0.00000   0.00000   0.00000
                  --------  --------  --------
10 C  s               0.0       0.3       0.0
10 C  pz              0.1       0.0       0.0
10 C  py              0.0       0.0       0.1
11 F  s              45.9      34.0      19.7
12 F  s               0.7      43.7      55.3
13 F  s              53.2      21.9      24.6


                      *****************************
                      * MAYER POPULATION ANALYSIS *
                      *****************************

  NA   - Mulliken gross atomic population
  ZA   - Total nuclear charge
  QA   - Mulliken gross atomic charge
  VA   - Mayer's total valence
  BVA  - Mayer's bonded valence
  FA   - Mayer's free valence

  ATOM       NA         ZA         QA         VA         BVA        FA
  0 C      6.7623     6.0000    -0.7623     3.8832     3.8832     0.0000
  1 H      0.7515     1.0000     0.2485     1.0404     1.0404     0.0000
  2 H      0.7966     1.0000     0.2034     1.0814     1.0814    -0.0000
  3 H      0.7936     1.0000     0.2064     1.0773     1.0773    -0.0000
  4 C      6.0262     6.0000    -0.0262     3.5698     3.5698     0.0000
  5 H      0.7963     1.0000     0.2037     0.9848     0.9848     0.0000
  6 H      0.7940     1.0000     0.2060     0.9799     0.9799     0.0000
  7 O      8.1769     8.0000    -0.1769     1.9744     1.9744     0.0000
  8 C      5.7883     6.0000     0.2117     4.4802     4.4802    -0.0000
  9 O      8.4226     8.0000    -0.4226     1.9925     1.9925     0.0000
 10 C      5.1865     6.0000     0.8135     3.4671     3.4671    -0.0000
 11 F      9.2411     9.0000    -0.2411     1.0659     1.0659     0.0000
 12 F      9.2213     9.0000    -0.2213     1.0648     1.0648     0.0000
 13 F      9.2430     9.0000    -0.2430     1.0585     1.0585     0.0000

  Mayer bond orders larger than 0.100000
B(  0-C ,  1-H ) :   0.9523 B(  0-C ,  2-H ) :   0.9963 B(  0-C ,  3-H ) :   0.9900 
B(  0-C ,  4-C ) :   0.8952 B(  4-C ,  5-H ) :   0.9410 B(  4-C ,  6-H ) :   0.9385 
B(  4-C ,  7-O ) :   0.7580 B(  7-O ,  8-C ) :   1.1036 B(  8-C ,  9-O ) :   1.8721 
B(  8-C , 10-C ) :   1.0253 B(  8-C , 11-F ) :   0.1240 B(  8-C , 12-F ) :   0.1621 
B(  8-C , 13-F ) :   0.1297 B( 10-C , 11-F ) :   0.8491 B( 10-C , 12-F ) :   0.8284 
B( 10-C , 13-F ) :   0.8348 

-------
TIMINGS
-------

Total SCF time: 0 days 0 hours 0 min 46 sec 

Total time                  ....      46.396 sec
Sum of individual times     ....      46.437 sec  (100.1%)

SCF preparation             ....       0.323 sec  (  0.7%)
Fock matrix formation       ....      44.579 sec  ( 96.1%)
  Startup                   ....       0.052 sec  (  0.1% of F)
  Split-RI-J                ....       2.532 sec  (  5.7% of F)
  Chain of spheres X        ....      34.719 sec  ( 77.9% of F)
  XC integration            ....       7.107 sec  ( 15.9% of F)
    Basis function eval.    ....       1.558 sec  ( 21.9% of XC)
    Density eval.           ....       1.625 sec  ( 22.9% of XC)
    XC-Functional eval.     ....       0.188 sec  (  2.6% of XC)
    XC-Potential eval.      ....       3.126 sec  ( 44.0% of XC)
Diagonalization             ....       0.000 sec  (  0.0%)
Density matrix formation    ....       0.118 sec  (  0.3%)
Total Energy calculation    ....       0.047 sec  (  0.1%)
Population analysis         ....       0.355 sec  (  0.8%)
Orbital Transformation      ....       0.152 sec  (  0.3%)
Orbital Orthonormalization  ....       0.000 sec  (  0.0%)
DIIS solution               ....       0.600 sec  (  1.3%)
SOSCF solution              ....       0.263 sec  (  0.6%)
Finished LeanSCF after  46.4 sec

Maximum memory used throughout the entire LEANSCF-calculation: 42.1 MB

-------------------------   --------------------
FINAL SINGLE POINT ENERGY      -605.480722168707
-------------------------   --------------------



           ************************************************************
           *        Program running with 4 parallel MPI-processes     *
           *              working on a common directory               *
           ************************************************************

------------------------------------------------------------------------------
                              ORCA PROPERTY CALCULATIONS
------------------------------------------------------------------------------

GBWName                                 ... scf.b97.gbw
Number of atoms                         ...     14
Number of basis functions               ...    393
Max core memory                         ...   1024 MB

Electric properties:
Dipole moment                           ... YES
Quadrupole moment                       ...  NO
Static polarizability (Dipole/Dipole)   ...  NO
Static polarizability (Dipole/Quad.)    ...  NO
Static polarizability (Quad./Quad.)     ...  NO
Static polarizability (Velocity)        ...  NO

Atomic electric properties:
Dipole moment                           ...  NO
Quadrupole moment                       ...  NO
Static polarizability                   ...  NO

Choice of electric origin               ... Center of mass
Position of electric origin             ...    -1.473610     2.169321     0.083978

General magnetic properties:
Magnetizability                         ...  NO

EPR properties:
g-Tensor (aka g-matrix)                 ...  NO
Zero-Field splitting spin-orbit         ...  NO
Zero-field splitting spin-spin          ...  NO
Hyperfine couplings                     ...  NO (   0 nuclei)
Quadrupole couplings                    ...  NO (   0 nuclei)
Contact density                         ...  NO (   0 nuclei)

NMR properties:
Chemical shifts                         ...  NO (   0 nuclei)
Spin-rotation constants                 ...  NO (   0 nuclei)
Spin-spin couplings                     ...  NO (   0 nuclei,    0 pairs)

Choice of magnetic origin               ... GIAO
Position of magnetic origin             ...     0.000000     0.000000     0.000000

Properties with geometric perturbations:
SCF Hessian                             ...  NO
IR spectrum                             ...  NO
VCD spectrum                            ...  NO
X-ray spectroscopy properties:
SCF XES/XAS/RIXS spectra                ...  NO


-------------
DIPOLE MOMENT
-------------

Method             : SCF
Type of density    : Electron Density
Multiplicity       :   1
Irrep              :   0
Energy             :  -605.4807221687074161 Eh
Relativity type    : 
Basis              : AO
                                X                 Y                 Z
Electronic contribution:    -18.287167507      -2.089543613       0.782678880
Nuclear contribution   :     19.573122213       1.861246739      -0.859319080
                        -----------------------------------------
Total Dipole Moment    :      1.285954706      -0.228296874      -0.076640200
                        -----------------------------------------
Magnitude (a.u.)       :      1.308309095
Magnitude (Debye)      :      3.325457441



--------------------
Rotational spectrum 
--------------------
 
Rotational constants in cm-1:             0.103599             0.032596             0.028834 
Rotational constants in MHz :          3105.823699           977.195472           864.408930 

Dipole components along the rotational axes: 
x,y,z [a.u.] :     1.266053    -0.329818    -0.001430 
x,y,z [Debye]:     3.218052    -0.838331    -0.003636 

 

Dipole moment calculation done in   0.0 sec 

Maximum memory used throughout the entire PROP-calculation: 24.1 MB

--------------------------------
SUGGESTED CITATIONS FOR THIS RUN
--------------------------------

Below you find a list of papers that are relevant to this ORCA run
We neither can nor want to force you to cite these papers, but we appreciate if you do
You receive ORCA, which is the product of decades of hard work by many enthusiastic individuals, for free
The only thing we kindly ask in return is that you cite our papers,
We deeply appreciate it, if you show your appreciation for ORCA by not just citing the generic ORCA reference.

Please note that relegating all ORCA citations to the supporting information does *not* help us.
SI sections are not indexed - citations you put there will not count into any citation statistics
But we need these citations in order to attract the funding resources that allow us to do what we are doing

Therefore, if you are a happy ORCA user, please consider citing a few of the papers listed below in the main body of your paper

In addition to the list printed below, the program has created the file scf.b97.bibtex that contains the list in bibtex format
You can import this file easily into all common literature databanks and citation aid programs


List of essential papers. We consider these as the minimum necessary citations

  1. Neese,F.
     Software update: the ORCA program system, version 5.0
     WIRES Comput. Molec. Sci., 2022 12(1)e1606
     doi.org/10.1002/wcms.1606

List of papers to cite with high priority. The work reported in these papers was absolutely
necessary for this run to complete.
Our perspective: the developers of density functionals and basis sets usually get cited in chemistry papers
Good! But without the algorithms to do something with them, the functionals or basis sets would not do anything.
Hence, in our opinion, the algorithm design and method developments papers are equally worthy of getting cited

  1. Neese,F.
     An improvement of the resolution of the identity approximation for the formation of the Coulomb matrix
     J. Comp. Chem., 2003 24(14)1740-1747
     doi.org/10.1002/jcc.10318
  2. Neese,F.; Wennmohs,F.; Hansen,A.; Becker,U.
     Efficient, approximate and parallel Hartree-Fock and hybrid DFT calculations. A 'chain-of-spheres' algorithm for the Hartree-Fock exchange
     Chem. Phys., 2009 356(1-3)98-109
     doi.org/10.1016/j.chemphys.2008.10.036
  3. Helmich-Paris,B.; de Souza,B.; Neese,F.; Izsák,R.
     An improved chain of spheres for exchange algorithm
     J. Chem. Phys., 2021 155 104109
     doi.org/doi: 10.1063/5.0058766.
  4. Neese,F.
     The SHARK Integral Generation and Digestion System
     J. Comp. Chem., 2022  1-16
     doi.org/10.1002/jcc.26942

List of suggested additional citations. These are papers that are important in the 'surrounding' of 
of this run, or papers that preceded the highly important papers. If you like your results we are grateful for a citation.

  1. Izsak,R.; Neese,F.
     An overlap fitted chain of spheres exchange method
     J. Chem. Phys., 2011 135 144105
     doi.org/10.1063/1.3646921
  2. Izsak,R.; Hansen,A.; Neese,F.
     The resolution of identity and chain of spheres approximations for the LPNO-CCSD singles Fock term
     Molec. Phys., 2012 110 2413-2417
     doi.org/10.1080/00268976.2012.687466
  3. Neese,F.
     The ORCA program system
     WIRES Comput. Molec. Sci., 2012 2(1)73-78
     doi.org/10.1002/wcms.81
  4. Izsak,R.; Neese,F.; Klopper,W.
     Robust fitting techniques in the chain of spheres approximation to the Fock exchange: The role of the complementary space
     J. Chem. Phys., 2013 139 
     doi.org/10.1063/1.4819264
  5. Neese,F.
     Software update: the ORCA program system, version 4.0
     WIRES Comput. Molec. Sci., 2018 8(1)1-6
     doi.org/10.1002/wcms.1327
  6. Neese,F.; Wennmohs,F.; Becker,U.; Riplinger,C.
     The ORCA quantum chemistry program package
     J. Chem. Phys., 2020 152 Art. No. L224108
     doi.org/10.1063/5.0004608

List of optional additional citations

  1. Neese,F.
     Approximate second-order SCF convergence for spin unrestricted wavefunctions
     Chem. Phys. Lett., 2000 325(1-3)93-98
     doi.org/10.1016/s0009-2614(00)00662-x

Timings for individual modules:

Sum of individual times          ...       50.230 sec (=   0.837 min)
Startup calculation              ...        2.100 sec (=   0.035 min)   4.2 %
SCF iterations                   ...       47.714 sec (=   0.795 min)  95.0 %
Property calculations            ...        0.417 sec (=   0.007 min)   0.8 %
                             ****ORCA TERMINATED NORMALLY****
TOTAL RUN TIME: 0 days 0 hours 0 minutes 50 seconds 636 msec
