
                                 *****************
                                 * O   R   C   A *
                                 *****************

                                            #,                                       
                                            ###                                      
                                            ####                                     
                                            #####                                    
                                            ######                                   
                                           ########,                                 
                                     ,,################,,,,,                         
                               ,,#################################,,                 
                          ,,##########################################,,             
                       ,#########################################, ''#####,          
                    ,#############################################,,   '####,        
                  ,##################################################,,,,####,       
                ,###########''''           ''''###############################       
              ,#####''   ,,,,##########,,,,          '''####'''          '####       
            ,##' ,,,,###########################,,,                        '##       
           ' ,,###''''                  '''############,,,                           
         ,,##''                                '''############,,,,        ,,,,,,###''
      ,#''                                            '''#######################'''  
     '                                                          ''''####''''         
             ,#######,   #######,   ,#######,      ##                                
            ,#'     '#,  ##    ##  ,#'     '#,    #''#        ,####,   ,####,        
            ##       ##  ##   ,#'  ##            #'  '#       #'       #'  '#        
            ##       ##  #######   ##           ,######,      #####,   #    #        
            '#,     ,#'  ##    ##  '#,     ,#' ,#      #,     #,   #   #,  ,#        
             '#######'   ##     ##  '#######'  #'      '#     '####' # '####'        



                #########################################################
                #                        -***-                          #
                #          Department of theory and spectroscopy        #
                #                                                       #
                #                      Frank Neese                      #
                #                                                       #
                #     Directorship, Architecture, Infrastructure        #
                #                    SHARK, DRIVERS                     #
                #        Core code/Algorithms in most modules           #
                #                                                       #
                #        Max Planck Institute fuer Kohlenforschung      #
                #                Kaiser Wilhelm Platz 1                 #
                #                 D-45470 Muelheim/Ruhr                 #
                #                      Germany                          #
                #                                                       #
                #                  All rights reserved                  #
                #                        -***-                          #
                #########################################################


                         Program Version 6.0.1  -  RELEASE   -


 With contributions from (in alphabetic order):
[Max-Planck-Institut fuer Kohlenforschung]                               
  Daniel Aravena         : Magnetic Suceptibility                        
  Michael Atanasov       : Ab Initio Ligand Field Theory (pilot matlab implementation)
  Alexander A. Auer      : GIAO ZORA, VPT2 properties, NMR spectrum      
  Ute Becker             : All parallelization in ORCA, NUMFREQ, NUMCALC 
  Giovanni Bistoni       : ED, misc. LED, open-shell LED, HFLD           
  Martin Brehm           : Molecular dynamics                            
  Dmytro Bykov           : pre 5.0 version of the SCF Hessian            
  Marcos Casanova-Páez   : Triplet and SCS-CIS(D). UHF-(DLPNO)-IP/EA/STEOM-CCSD. UHF-CVS-IP/STEOM-CCSD   
  Vijay G. Chilkuri      : MRCI spin determinant printing, contributions to CSF-ICE 
  Pauline Colinet        : FMM embedding                                 
  Dipayan Datta          : RHF DLPNO-CCSD density                        
  Achintya Kumar Dutta   : EOM-CC, STEOM-CC                              
  Nicolas Foglia         : Exact transition moments, OPA infrastructure, MCD improvements    
  Dmitry Ganyushin       : Spin-Orbit,Spin-Spin,Magnetic field MRCI      
  Miquel Garcia-Rates    : C-PCM and meta-GGA Hessian, CCSD/C-PCM, Gaussian charge scheme 
  Tiago L. C. Gouveia    : GS-ROHF, GS-ROCIS                             
  Yang Guo               : DLPNO-NEVPT2, F12-NEVPT2, CIM, IAO-localization        
  Andreas Hansen         : Spin unrestricted coupled pair/coupled cluster methods 
  Ingolf Harden          : AUTO-CI MPn and infrastructure                
  Benjamin Helmich-Paris : MC-RPA, TRAH-(SCF,CASSCF), AVAS, COSX integrals, SCF dyn. polar. 
  Lee Huntington         : MR-EOM, pCC                                   
  Robert Izsak           : Overlap fitted RIJCOSX, COSX-SCS-MP3, EOM     
  Riya Kayal             : Wick's Theorem for AUTO-CI, AUTO-CI UHF-CCSDT 
  Emily Kempfer          : AUTO-CI, RHF CISDT and CCSDT                  
  Christian Kollmar      : KDIIS, OOCD, Brueckner-CCSD(T), CCSD density, CASPT2, CASPT2-K, improved NEVPT2 
  Axel Koslowski         : Symmetry handling                             
  Simone Kossmann        : meta-GGA functionals, TD-DFT gradient, OOMP2, (MP2 Hessian; deprecated post 5.0) 
  Lucas Lang             : DCDCAS                                        
  Marvin Lechner         : AUTO-CI (C++ implementation), FIC-MRCC        
  Spencer Leger          : CASSCF response                               
  Dagmar Lenk            : GEPOL surface, SMD, ORCA-2-JSON               
  Dimitrios Liakos       : Extrapolation schemes; Compound Job, initial MDCI parallelization 
  Dimitrios Manganas     : Further ROCIS development; embedding schemes. LFT, Crystal Embedding 
  Dimitrios Pantazis     : SARC Basis sets                               
  Anastasios Papadopoulos: AUTO-CI, single reference methods and gradients 
  Taras Petrenko         : pre 6.0 DFT Hessian and TD-DFT gradient, (ASA, deprecated), ECA, 1-Electron XAS/XES, NRVS 
  Peter Pinski           : DLPNO-MP2, DLPNO-MP2 Gradient                 
  Christoph Reimann      : Effective Core Potentials                     
  Marius Retegan         : Local ZFS, SOC                                
  Christoph Riplinger    : Optimizer, TS searches, QM/MM, DLPNO-CCSD(T), (RO)-DLPNO pert. Triples 
  Michael Roemelt        : Original ROCIS implementation                 
  Masaaki Saitow         : Open-shell DLPNO-CCSD energy and density      
  Barbara Sandhoefer     : DKH picture change effects                    
  Kantharuban Sivalingam : CASSCF convergence/infrastructure, NEVPT2 and variants, FIC-MRCI 
  Bernardo de Souza      : ESD, SOC TD-DFT                               
  Georgi L. Stoychev     : AutoAux, RI-MP2 NMR, DLPNO-MP2 response, X2C  
  Van Anh Tran           : RI-MP2 g-tensors                              
  Willem Van den Heuvel  : Paramagnetic NMR                              
  Zikuan Wang            : NOTCH, Electric field optimization            
  Frank Wennmohs         : Technical directorship and infrastructure     
  Hang Xu                : AUTO-CI-Response properties                   
                                                                         
[FACCTs GmbH]                                                            
  Markus Bursch, Miquel Garcia-Rates, Christoph Riplinger, Bernardo de Souza, Georgi L. Stoychev 
                                                                 
  APM, Basis sets (HGBS, AHGBS, def-TZVP (Ac-Lr), def2-XVPD (La-Lu)), CI-OPT, improved COSX, DLPNO-Multilevel,           
  DOCKER, DRACO, updates on ESD, GOAT, IRC, LR-CPCM, MBIS, meta-GGA TD-DFT gradient, ML-optimized integration grids, 
  MM, NACMEs, nearIR, NEB, NEB-TS, NL-DFT gradient (VV10), 2- and 3-layer-ONIOM, interface openCOSMO-RS, QMMM,   
  Crystal-QMMM, SF, symmetry and pop. for TD-DFT, r2SCAN hybrids, SOLVATOR                                   
                                                                         
[Other institutions]                                                     
  V. Asgeirsson          : NEB                                           
  Christoph Bannwarth    : sTDA-DFT, sTD-DFT, PBEh-3c, B97-3c, D3        
  Sebastian Ehlert       : rSCAN, r2SCAN, r2SCAN-3c, D4, dhf basis sets  
  Marvin Friede          : D4 for Fr, Ra, Ac-Lr                          
  Lars Goerigk           : TD-DFT with DH, B97 family of functionals     
  Stefan Grimme          : VdW corrections, initial TS optimization, DFT functionals, gCP, sTDA/sTD-DF 
  Waldemar Hujo          : DFT-NL                                        
  H. Jonsson             : NEB                                           
  Holger Kruse           : gCP                                           
  Marcel Mueller         : wB97X-3c, vDZP basis set                      
  Hagen Neugebauer       : wr2SCAN                                       
  Tobias Risthaus        : range-separated hybrid DFT                    
  Lukas Wittmann         : regularized MP2, r2SCAN double-hybrids, wr2SCAN        
                                                                         
We gratefully acknowledge several colleagues who have allowed us to      
interface, adapt or use parts of their codes:                            
  Ed Valeev, F. Pavosevic, A. Kumar             : LibInt (2-el integral package), F12 methods 
  Garnet Chan, S. Sharma, J. Yang, R. Olivares  : DMRG                   
  Ulf Ekstrom                                   : XCFun DFT Library      
  Mihaly Kallay                                 : mrcc  (arbitrary order and MRCC methods)
  Frank Weinhold                                : gennbo (NPA and NBO analysis)           
  Simon Mueller                                 : openCOSMO-RS                            
  Christopher J. Cramer and Donald G. Truhlar   : smd solvation model                     
  S Lehtola, MJT Oliveira, MAL Marques          : LibXC Library                           
  Liviu Ungur et al                             : ANISO software                          


 Your calculation uses the libint2 library for the computation of 2-el integrals
 For citations please refer to: http://libint.valeyev.net

 Your ORCA version has been built with support for libXC version: 6.2.2
 For citations please refer to: https://libxc.gitlab.io

 This ORCA versions uses:
   CBLAS   interface :  Fast vector & matrix operations
   LAPACKE interface :  Fast linear algebra routines
   SCALAPACK package :  Parallel linear algebra routines
   Shared memory     :  Shared parallel matrices
   BLAS/LAPACK       :  OpenBLAS 0.3.27  USE64BITINT DYNAMIC_ARCH NO_AFFINITY SkylakeX SINGLE_THREADED
        Core in use  :  SkylakeX
   Copyright (c) 2011-2014, The OpenBLAS Project




***************************************
The coordinates will be read from file: opt.xyz
***************************************


XCFun DFT library Copyright 2009-2010 Ulf Ekstrom and contributors.
See http://admol.org/xcfun for more information.
This is free software; see the source code for copying conditions.
There is ABSOLUTELY NO WARRANTY; not even for MERCHANTABILITY or FITNESS FOR A PARTICULAR PURPOSE.
For details see the documentation.
Scientific users of this library should cite U. Ekstrom, L. Visscher, R. Bast, A. J. Thorvaldsen and K. Ruud;
J.Chem.Theor.Comp. 2010, DOI: 10.1021/ct100117s
XCFun Version 0.99 

================================================================================

----- Orbital basis set information -----
Your calculation utilizes the basis: def2-TZVPD
   F. Weigend and R. Ahlrichs, Phys. Chem. Chem. Phys. 7, 3297 (2005).
   D. Rappoport and F. Furche, J. Chem. Phys. 133, 134105 (2010)
   D. Rappoport, J. Chem. Phys. 155, 124102 (2021).

----- AuxJ basis set information -----
Your calculation utilizes the auxiliary basis: def2/J
   F. Weigend, Phys. Chem. Chem. Phys. 8, 1057 (2006).

================================================================================
                                        WARNINGS
                       Please study these warnings very carefully!
================================================================================


INFO   : The exchange functional is Becke's original B97,
         As described in A.D. Becke, J. Chem. Phys. 107, 8554 (1997)
         Note that this functional does not observe the UEG, for this reason, ACM-B defaults to 1.0 
         although this is a hybrid. 

INFO   : The correlation functional is Becke's original B97,
         As described in A.D. Becke, J. Chem. Phys. 107, 8554 (1997).

================================================================================
                                       INPUT FILE
================================================================================
NAME = delta-relaxed.c2.b97.inp
|  1> ! UKS B97 def2-TZVPD def2/J DeltaSCF NoDIIS MORead
|  2> 
|  3> %pal nprocs 4 end
|  4> 
|  5> %moinp "scf.b97.gbw"
|  6> 
|  7> %scf
|  8>  ionizealpha 7
|  9> end
| 10> 
| 11> * xyzfile 0 1 opt.xyz
| 12> 
| 13>                          ****END OF INPUT****
================================================================================

                       ****************************
                       * Single Point Calculation *
                       ****************************

---------------------------------
CARTESIAN COORDINATES (ANGSTROEM)
---------------------------------
  C      2.702600    0.689523   -0.145928
  H      3.670345    1.191912   -0.175981
  H      2.686294    0.026283    0.719168
  H      2.599061    0.087695   -1.048909
  C      1.606415    1.719310   -0.054840
  H      1.681207    2.325971    0.848839
  H      1.597548    2.391508   -0.914412
  O      0.347047    1.013989   -0.022341
  C     -0.734084    1.760161    0.086863
  O     -0.786454    2.949773    0.164472
  C     -1.993808    0.858488    0.089849
  F     -1.906614   -0.076167    1.038669
  F     -3.080715    1.580352    0.309364
  F     -2.123108    0.244631   -1.089872

----------------------------
CARTESIAN COORDINATES (A.U.)
----------------------------
  NO LB      ZA    FRAG     MASS         X           Y           Z
   0 C     6.0000    0    12.011    5.107174    1.303011   -0.275763
   1 H     1.0000    0     1.008    6.935948    2.252388   -0.332557
   2 H     1.0000    0     1.008    5.076361    0.049668    1.359030
   3 H     1.0000    0     1.008    4.911513    0.165720   -1.982151
   4 C     6.0000    0    12.011    3.035684    3.249026   -0.103632
   5 H     1.0000    0     1.008    3.177020    4.395449    1.604073
   6 H     1.0000    0     1.008    3.018929    4.519294   -1.727989
   7 O     8.0000    0    15.999    0.655823    1.916162   -0.042218
   8 C     6.0000    0    12.011   -1.387217    3.326222    0.164148
   9 O     8.0000    0    15.999   -1.486183    5.574263    0.310807
  10 C     6.0000    0    12.011   -3.767751    1.622307    0.169791
  11 F     9.0000    0    18.998   -3.602978   -0.143934    1.962800
  12 F     9.0000    0    18.998   -5.821708    2.986433    0.584613
  13 F     9.0000    0    18.998   -4.012092    0.462285   -2.059559

--------------------------------
INTERNAL COORDINATES (ANGSTROEM)
--------------------------------
 C      0   0   0     0.000000000000     0.00000000     0.00000000
 H      1   0   0     1.090792508287     0.00000000     0.00000000
 H      1   2   0     1.090203702586   108.38062614     0.00000000
 H      1   2   3     1.090088518652   108.40446712   242.22709268
 C      1   2   3     1.506778404623   109.41028889   121.05509859
 H      5   1   2     1.090993391539   112.34812579   298.81683955
 H      5   1   2     1.091234657857   112.28952852    60.91241413
 O      5   1   2     1.443794037108   107.58153879   179.80170607
 C      8   5   1     1.318158123706   116.15127605   178.56612450
 O      9   8   5     1.193290646740   127.27998865   359.82346144
 C      9   8   5     1.549170101852   109.73229289   179.30608416
 F     11   9   8     1.334706346905   110.84434478    54.46812213
 F     11   9   8     1.323118419520   110.53405632   174.84707178
 F     11   9   8     1.336144168544   110.14457596   294.76072368

---------------------------
INTERNAL COORDINATES (A.U.)
---------------------------
 C      0   0   0     0.000000000000     0.00000000     0.00000000
 H      1   0   0     2.061299109596     0.00000000     0.00000000
 H      1   2   0     2.060186428075   108.38062614     0.00000000
 H      1   2   3     2.059968761984   108.40446712   242.22709268
 C      1   2   3     2.847398529245   109.41028889   121.05509859
 H      5   1   2     2.061678723926   112.34812579   298.81683955
 H      5   1   2     2.062134651194   112.28952852    60.91241413
 O      5   1   2     2.728375323923   107.58153879   179.80170607
 C      8   5   1     2.490957855007   116.15127605   178.56612450
 O      9   8   5     2.254992520509   127.27998865   359.82346144
 C      9   8   5     2.927507227358   109.73229289   179.30608416
 F     11   9   8     2.522229464858   110.84434478    54.46812213
 F     11   9   8     2.500331455639   110.53405632   174.84707178
 F     11   9   8     2.524946553984   110.14457596   294.76072368

---------------------
BASIS SET INFORMATION
---------------------
There are 4 groups of distinct atoms

 Group   1 Type C   : 12s6p3d1f contracted to 6s3p3d1f pattern {621111/411/111/1}
 Group   2 Type H   : 5s2p contracted to 3s2p pattern {311/11}
 Group   3 Type O   : 12s7p3d1f contracted to 6s4p3d1f pattern {621111/4111/111/1}
 Group   4 Type F   : 12s7p3d1f contracted to 6s4p3d1f pattern {621111/4111/111/1}

Atom   0C    basis set group =>   1
Atom   1H    basis set group =>   2
Atom   2H    basis set group =>   2
Atom   3H    basis set group =>   2
Atom   4C    basis set group =>   1
Atom   5H    basis set group =>   2
Atom   6H    basis set group =>   2
Atom   7O    basis set group =>   3
Atom   8C    basis set group =>   1
Atom   9O    basis set group =>   3
Atom  10C    basis set group =>   1
Atom  11F    basis set group =>   4
Atom  12F    basis set group =>   4
Atom  13F    basis set group =>   4
---------------------------------
AUXILIARY/J BASIS SET INFORMATION
---------------------------------
There are 4 groups of distinct atoms

 Group   1 Type C   : 12s5p4d2f1g contracted to 6s4p3d1f1g pattern {711111/2111/211/2/1}
 Group   2 Type H   : 5s2p1d contracted to 3s1p1d pattern {311/2/1}
 Group   3 Type O   : 12s5p4d2f1g contracted to 6s4p3d1f1g pattern {711111/2111/211/2/1}
 Group   4 Type F   : 12s5p4d2f1g contracted to 6s4p3d1f1g pattern {711111/2111/211/2/1}

Atom   0C    basis set group =>   1
Atom   1H    basis set group =>   2
Atom   2H    basis set group =>   2
Atom   3H    basis set group =>   2
Atom   4C    basis set group =>   1
Atom   5H    basis set group =>   2
Atom   6H    basis set group =>   2
Atom   7O    basis set group =>   3
Atom   8C    basis set group =>   1
Atom   9O    basis set group =>   3
Atom  10C    basis set group =>   1
Atom  11F    basis set group =>   4
Atom  12F    basis set group =>   4
Atom  13F    basis set group =>   4


           ************************************************************
           *        Program running with 4 parallel MPI-processes     *
           *              working on a common directory               *
           ************************************************************
------------------------------------------------------------------------------
                             ORCA STARTUP CALCULATIONS
                           -- RI-GTO INTEGRALS CHOSEN --
------------------------------------------------------------------------------
------------------------------------------------------------------------------
                   ___                                                        
                  /   \      - P O W E R E D   B Y -                         
                 /     \                                                     
                 |  |  |   _    _      __       _____    __    __             
                 |  |  |  | |  | |    /  \     |  _  \  |  |  /  |          
                  \  \/   | |  | |   /    \    | | | |  |  | /  /          
                 / \  \   | |__| |  /  /\  \   | |_| |  |  |/  /          
                |  |  |   |  __  | /  /__\  \  |    /   |      \           
                |  |  |   | |  | | |   __   |  |    \   |  |\   \          
                \     /   | |  | | |  |  |  |  | |\  \  |  | \   \       
                 \___/    |_|  |_| |__|  |__|  |_| \__\ |__|  \__/        
                                                                              
                      - O R C A' S   B I G   F R I E N D -                    
                                      &                                       
                       - I N T E G R A L  F E E D E R -                       
                                                                              
 v1 FN, 2020, v2 2021, v3 2022-2024                                           
------------------------------------------------------------------------------


----------------------
SHARK INTEGRAL PACKAGE
----------------------

Number of atoms                             ...     14
Number of basis functions                   ...    393
Number of shells                            ...    147
Maximum angular momentum                    ...      3
Integral batch strategy                     ... SHARK/LIBINT Hybrid
RI-J (if used) integral strategy            ... SPLIT-RIJ (Revised 2003 algorithm where possible)
Printlevel                                  ...      1
Contraction scheme used                     ... SEGMENTED contraction
Prescreening option                         ... SCHWARTZ
   Thresh                                   ... 1.000e-10
   Tcut                                     ... 1.000e-11
   Tpresel                                  ... 1.000e-11 
Coulomb Range Separation                    ... NOT USED
Exchange Range Separation                   ... NOT USED
Multipole approximations                    ... NOT USED
Finite Nucleus Model                        ... NOT USED
CABS basis                                  ... NOT available
Auxiliary Coulomb fitting basis             ... AVAILABLE
   # of basis functions in Aux-J            ...    496
   # of shells in Aux-J                     ...    160
   Maximum angular momentum in Aux-J        ...      4
Auxiliary J/K fitting basis                 ... NOT available
Auxiliary Correlation fitting basis         ... NOT available
Auxiliary 'external' fitting basis          ... NOT available

Checking pre-screening integrals            ... done (  0.0 sec) Dimension = 147
Check shell pair data                       ... done (  0.0 sec)
Shell pair information
Shell pair cut-off parameter TPreSel        ...   1.0e-11
Total number of shell pairs                 ...     10878
Shell pairs after pre-screening             ...      9725
Total number of primitive shell pairs       ...     28654
Primitive shell pairs kept                  ...     19811
          la=0 lb=0:   2045 shell pairs
          la=1 lb=0:   2634 shell pairs
          la=1 lb=1:    855 shell pairs
          la=2 lb=0:   1660 shell pairs
          la=2 lb=1:   1067 shell pairs
          la=2 lb=2:    359 shell pairs
          la=3 lb=0:    511 shell pairs
          la=3 lb=1:    337 shell pairs
          la=3 lb=2:    217 shell pairs
          la=3 lb=3:     40 shell pairs

Calculating one electron integrals          ... done (  0.0 sec)
Calculating RI/J V-Matrix + Cholesky decomp.... done (  0.1 sec)
Calculating Nuclear repulsion               ... done (  0.0 sec) ENN=    501.755175243768 Eh

Diagonalization of the overlap matrix:
Smallest eigenvalue                        ... 5.807e-06
Time for diagonalization                   ...    0.025 sec
Threshold for overlap eigenvalues          ... 1.000e-07
Number of eigenvalues below threshold      ... 0
Time for construction of square roots      ...    0.046 sec
Total time needed                          ...    0.074 sec

-------------------
DFT GRID GENERATION
-------------------

General Integration Accuracy     IntAcc      ... 4.388
Radial Grid Type                 RadialGrid  ... OptM3 with GC (2021)
Angular Grid (max. ang.)         AngularGrid ... 4 (Lebedev-302)
Angular grid pruning method      GridPruning ... 4 (adaptive)
Weight generation scheme         WeightScheme... mBecke (2022)
Basis function cutoff            BFCut       ... 1.0000e-10
Integration weight cutoff        WCut        ... 1.0000e-14
Partially contracted basis set               ... off
Rotationally invariant grid construction     ... off
Angular grids for H and He will be reduced by one unit
Diffuse basis detected: some atoms will have their outermost
                        angular grid increased by 1.

Total number of grid points                  ...    74424
Total number of batches                      ...     1169
Average number of points per batch           ...       63
Average number of grid points per atom       ...     5316

--------------------
COSX GRID GENERATION
--------------------

GRIDX 1
-------
General Integration Accuracy     IntAcc      ... 3.816
Radial Grid Type                 RadialGrid  ... OptM3 with GC (2021)
Angular Grid (max. ang.)         AngularGrid ... 1 (Lebedev-50)
Angular grid pruning method      GridPruning ... 4 (adaptive)
Weight generation scheme         WeightScheme... mBecke (2022)
Basis function cutoff            BFCut       ... 1.0000e-10
Integration weight cutoff        WCut        ... 1.0000e-14
Partially contracted basis set               ... on
Rotationally invariant grid construction     ... off
Angular grids for H and He will be reduced by one unit
Diffuse basis detected: some atoms will have their outermost
                        angular grid increased by 1.

Total number of grid points                  ...     9368
Total number of batches                      ...       83
Average number of points per batch           ...      112
Average number of grid points per atom       ...      669
UseSFitting                                  ... on

GRIDX 2
-------
General Integration Accuracy     IntAcc      ... 4.020
Radial Grid Type                 RadialGrid  ... OptM3 with GC (2021)
Angular Grid (max. ang.)         AngularGrid ... 2 (Lebedev-110)
Angular grid pruning method      GridPruning ... 4 (adaptive)
Weight generation scheme         WeightScheme... mBecke (2022)
Basis function cutoff            BFCut       ... 1.0000e-10
Integration weight cutoff        WCut        ... 1.0000e-14
Partially contracted basis set               ... on
Rotationally invariant grid construction     ... off
Angular grids for H and He will be reduced by one unit
Diffuse basis detected: some atoms will have their outermost
                        angular grid increased by 1.

Total number of grid points                  ...    23844
Total number of batches                      ...      193
Average number of points per batch           ...      123
Average number of grid points per atom       ...     1703
UseSFitting                                  ... on

GRIDX 3
-------
General Integration Accuracy     IntAcc      ... 4.338
Radial Grid Type                 RadialGrid  ... OptM3 with GC (2021)
Angular Grid (max. ang.)         AngularGrid ... 3 (Lebedev-194)
Angular grid pruning method      GridPruning ... 4 (adaptive)
Weight generation scheme         WeightScheme... mBecke (2022)
Basis function cutoff            BFCut       ... 1.0000e-10
Integration weight cutoff        WCut        ... 1.0000e-14
Partially contracted basis set               ... on
Rotationally invariant grid construction     ... off
Angular grids for H and He will be reduced by one unit
Diffuse basis detected: some atoms will have their outermost
                        angular grid increased by 1.

Total number of grid points                  ...    52460
Total number of batches                      ...      416
Average number of points per batch           ...      126
Average number of grid points per atom       ...     3747
UseSFitting                                  ... on
Initializing property integral containers    ... done (  0.0 sec)

SHARK setup successfully completed in   2.7 seconds

Maximum memory used throughout the entire STARTUP-calculation: 34.4 MB


           ************************************************************
           *        Program running with 4 parallel MPI-processes     *
           *              working on a common directory               *
           ************************************************************
-------------------------------------------------------------------------------
                                 ORCA GUESS
                   Start orbitals & Density for SCF / CASSCF
-------------------------------------------------------------------------------

------------
SCF SETTINGS
------------
Hamiltonian:
 Density Functional     Method          .... DFT(GTOs)
 Exchange Functional    Exchange        .... B97BECKE
 Correlation Functional Correlation     .... B97BECKE
 Gradients option       PostSCFGGA      .... off
 Hybrid DFT is turned on
   Fraction HF Exchange ScalHFX         ....  0.194300
   Scaling of DF-GGA-X  ScalDFX         ....  1.000000
   Scaling of DF-GGA-C  ScalDFC         ....  1.000000
   Scaling of DF-LDA-C  ScalLDAC        ....  1.000000
   Perturbative correction              ....  0.000000
 RI-approximation to the Coulomb term is turned on
   Number of AuxJ basis functions       .... 496
   RIJ-COSX (HFX calculated with COS-X)).... on


General Settings:
 Integral files         IntName         .... delta-relaxed.c2.b97
 Hartree-Fock type      HFTyp           .... UHF
 Total Charge           Charge          ....    0
 Multiplicity           Mult            ....    1
 Number of Electrons    NEL             ....   72
 Basis Dimension        Dim             ....  393
 Nuclear Repulsion      ENuc            ....    501.7551752438 Eh

Convergence Acceleration:
 AO-DIIS                CNVDIIS         .... off
 MO-DIIS                CNVKDIIS        .... off
 Trust-Rad. Augm. Hess. CNVTRAH         .... off
 SOSCF                  CNVSOSCF        .... on
   Start iteration      SOSCFMaxIt      ....   150
   Startup grad/error   SOSCFStart      ....  0.003300
   Hessian update       SOSCFHessUp     .... L-SR1
 Level Shifting         CNVShift        .... on
   Level shift para.    LevelShift      ....    0.0000
   Turn off err/grad.   ShiftErr        ....    0.0010
 Zerner damping         CNVZerner       .... off
 Static damping         CNVDamp         .... on
   Fraction old density DampFac         ....    0.7000
   Max. Damping (<1)    DampMax         ....    0.9800
   Min. Damping (>=0)   DampMin         ....    0.0000
   Turn off err/grad.   DampErr         ....    0.1000

SCF Procedure:
 Maximum # iterations   MaxIter         ....   125
 SCF integral mode      SCFMode         .... Direct
   Integral package                     .... SHARK and LIBINT hybrid scheme
 Reset frequency        DirectResetFreq ....    20
 Integral Threshold     Thresh          ....  1.000e-10 Eh
 Primitive CutOff       TCut            ....  1.000e-11 Eh

Convergence Tolerance:
 Convergence Check Mode ConvCheckMode   .... Total+1el-Energy
 Convergence forced     ConvForced      .... 0
 Energy Change          TolE            ....  1.000e-06 Eh
 1-El. energy change                    ....  1.000e-03 Eh
 Orbital Gradient       TolG            ....  5.000e-05
 Orbital Rotation angle TolX            ....  5.000e-05

---------------------
INITIAL GUESS: MOREAD
---------------------
Guess MOs are being read from file: scf.b97.gbw
Input Geometry matches current geometry (good)
Input basis set matches current basis set (good)
Occupation numbers will be reassigned to an Aufbau configuration
MOs were renormalized
MOs were reorthogonalized (Cholesky)
                      ------------------
                      INITIAL GUESS DONE (   0.1 sec)
                      ------------------
             **** ENERGY FILE WAS UPDATED (delta-relaxed.c2.b97.en.tmp) ****
Finished Guess after   0.5 sec
Maximum memory used throughout the entire GUESS-calculation: 27.3 MB


           ************************************************************
           *        Program running with 4 parallel MPI-processes     *
           *              working on a common directory               *
           ************************************************************

-------------------------------------------------------------------------------------------
                                      ORCA LEAN-SCF
                              memory conserving SCF solver
-------------------------------------------------------------------------------------------

-------------------------------
DELTA-SCF INITIAL CONFIGURATION
-------------------------------

Alpha: 1.00 1.00 1.00 0.00 1.00 1.00 1.00 1.00 1.00 1.00 1.00 1.00 1.00 1.00 1.00 1.00 1.00 1.00 1.00 1.00 1.00 1.00 1.00 1.00 1.00 1.00 1.00 1.00 1.00 1.00 1.00 1.00 0.00 0.00 0.00 
Beta : 1.00 1.00 1.00 1.00 1.00 1.00 1.00 1.00 1.00 1.00 1.00 1.00 1.00 1.00 1.00 1.00 1.00 1.00 1.00 1.00 1.00 1.00 1.00 1.00 1.00 1.00 1.00 1.00 1.00 1.00 1.00 1.00 0.00 0.00 0.00 
Removed alpha: 7 

Hessian update                             ... L-SR1
Aufbau metric                              ... MOM
Keep initial reference                     ... true

-------------------------------------S-C-F---------------------------------------
Iteration    Energy (Eh)           Delta-E    RMSDP     MaxDP     Damp  Time(sec)
---------------------------------------------------------------------------------
               ***  Starting incremental Fock matrix formation  ***
                              *** Initializing SOSCF ***
---------------------------------------S-O-S-C-F--------------------------------------
Iteration    Energy (Eh)           Delta-E    RMSDP     MaxDP     MaxGrad    Time(sec)
--------------------------------------------------------------------------------------
    1    -594.1587234362895060     0.00e+00  0.00e+00  0.00e+00  8.74e-01     6.9
               *** Restarting incremental Fock matrix formation ***
               *** Scaled step length from 1.129599 to 0.200000 ***
    2    -594.1587234362895060     0.00e+00  9.64e-04  1.12e-01  8.74e-01     6.8
               *** Scaled step length from 0.573575 to 0.200000 ***
    3    -594.4652812171060532    -3.07e-01  9.32e-03  7.58e-01  7.10e-01     6.2
               *** Scaled step length from 0.671498 to 0.200000 ***
    4    -594.6122582246320007    -1.47e-01  7.65e-03  7.57e-01  6.19e-01     6.6
    5    -594.6910728016813437    -7.88e-02  2.13e-02  2.63e+00  5.01e-01     6.5
               *** Scaled step length from 0.225943 to 0.200000 ***
    6    -594.6685034019127443     2.26e-02  1.52e-02  1.79e+00  3.10e-01     6.6
    7    -594.6551190843518953     1.34e-02  9.05e-04  6.15e-02  3.65e-01     6.7
               *** Scaled step length from 0.563159 to 0.200000 ***
    8    -594.6371925866334323     1.79e-02  1.78e-03  1.65e-01  3.27e-01     6.1
               *** Scaled step length from 0.677549 to 0.200000 ***
    9    -594.6516341896323183    -1.44e-02  1.23e-02  2.02e+00  2.67e-01     6.2
               *** Scaled step length from 1.507640 to 0.200000 ***
   10    -594.5544647859668430     9.72e-02  1.02e-02  1.22e+00  2.81e-01     6.6
               *** Scaled step length from 29.836404 to 0.200000 ***
   11    -594.4879317164514987     6.65e-02  1.55e-02  2.16e+00  3.51e-01     6.5
               *** Scaled step length from 0.718932 to 0.200000 ***
   12    -594.3935480847054578     9.44e-02  1.01e-02  1.71e+00  5.60e-01     6.6
               *** Scaled step length from 0.488067 to 0.200000 ***
   13    -594.4784752635629275    -8.49e-02  1.35e-02  1.35e+00  4.49e-01     6.5
               *** Scaled step length from 0.973312 to 0.200000 ***
   14    -594.5008138709362129    -2.23e-02  1.64e-02  1.32e+00  3.94e-01     6.6
               *** Scaled step length from 0.297736 to 0.200000 ***
   15    -594.5860337148445751    -8.52e-02  1.10e-02  1.04e+00  2.32e-01     6.6
   16    -594.6341144962558474    -4.81e-02  4.46e-03  3.70e-01  1.83e-01     6.5
   17    -594.6488181649953049    -1.47e-02  3.94e-03  4.19e-01  1.54e-01     6.4
               *** Scaled step length from 0.284580 to 0.200000 ***
   18    -594.6320918498284982     1.67e-02  1.52e-03  1.08e-01  1.68e-01     6.2
               *** Scaled step length from 0.520790 to 0.200000 ***
   19    -594.6444144866492252    -1.23e-02  1.10e-02  9.87e-01  1.67e-01     6.2
   20    -594.6652485606681466    -2.08e-02  5.30e-03  8.47e-01  1.59e-01     6.7
               *** Scaled step length from 0.367242 to 0.200000 ***
   21    -594.6831837123703508    -1.79e-02  2.88e-02  3.36e+00  1.41e-01     6.5
               *** Restarting incremental Fock matrix formation ***
               *** Scaled step length from 0.843217 to 0.200000 ***
   22    -594.6141715396282734     6.90e-02  2.74e-02  3.14e+00  1.94e-01     7.0
               *** Scaled step length from 0.200334 to 0.200000 ***
   23    -594.6969166188686131    -8.27e-02  8.22e-03  1.62e+00  2.39e-01     6.6
               *** Scaled step length from 6.110670 to 0.200000 ***
   24    -594.6895982608147051     7.32e-03  8.47e-03  1.58e+00  8.07e-02     6.5
               *** Scaled step length from 0.592552 to 0.200000 ***
   25    -594.6870640354808302     2.53e-03  1.66e-02  3.06e+00  6.90e-02     6.5
               *** Scaled step length from 0.498992 to 0.200000 ***
   26    -594.6784318802052667     8.63e-03  5.72e-02  8.37e+00  1.11e-01     6.6
               *** Scaled step length from 0.389029 to 0.200000 ***
   27    -594.5960148471866660     8.24e-02  4.41e-02  6.11e+00  2.67e-01     6.6
   28    -594.6618910609903423    -6.59e-02  2.33e-02  3.71e+00  1.81e-01     6.6
   29    -594.6855493754695772    -2.37e-02  1.69e-03  3.50e-01  9.04e-02     6.7
   30    -594.6846816607247774     8.68e-04  3.22e-04  3.48e-02  8.76e-02     6.1
   31    -594.6858912683572953    -1.21e-03  1.73e-03  2.97e-01  8.34e-02     5.8
   32    -594.6806830326867157     5.21e-03  5.50e-04  8.91e-02  8.29e-02     6.2
               *** Scaled step length from 0.366188 to 0.200000 ***
   33    -594.6843484471627335    -3.67e-03  4.89e-03  2.09e-01  1.06e-01     5.9
   34    -594.6926690868582455    -8.32e-03  4.13e-03  2.42e-01  2.52e-01     6.6
   35    -594.6903905527450434     2.28e-03  1.15e-03  1.52e-01  2.96e-01     6.5
   36    -594.6727203534893533     1.77e-02  4.29e-03  5.48e-01  3.10e-01     6.2
   37    -594.6978215431460058    -2.51e-02  4.60e-03  8.03e-01  6.94e-02     6.5
   38    -594.7172696899514222    -1.94e-02  2.71e-03  5.09e-01  2.96e-01     6.5
   39    -594.6839858209017393     3.33e-02  7.09e-04  6.56e-02  7.25e-02     6.2
               *** Scaled step length from 0.212087 to 0.200000 ***
   40    -594.6925848675681436    -8.60e-03  3.29e-03  4.23e-01  3.66e-02     6.1
   41    -594.6713070225392812     2.13e-02  2.12e-04  1.27e-02  4.34e-02     6.5
               *** Restarting incremental Fock matrix formation ***
   42    -594.6708420670439637     4.65e-04  3.56e-04  2.56e-02  4.79e-02     6.9
   43    -594.6705039333022569     3.38e-04  5.45e-03  1.09e+00  4.28e-02     5.9
               *** Scaled step length from 0.219654 to 0.200000 ***
   44    -594.6323081816682361     3.82e-02  7.08e-03  1.26e+00  1.24e-01     6.4
   45    -594.6948696627295021    -6.26e-02  1.46e-03  2.24e-01  2.22e-02     6.6
   46    -594.6942301769141750     6.39e-04  3.74e-04  5.66e-02  1.79e-02     6.0
   47    -594.6947799585112762    -5.50e-04  4.52e-05  7.43e-03  1.53e-02     6.0
   48    -594.6948451432032243    -6.52e-05  2.82e-03  4.79e-01  1.52e-02     5.7
   49    -594.6983330003378114    -3.49e-03  6.36e-04  8.66e-02  9.15e-02     6.5
   50    -594.6963319951429412     2.00e-03  3.73e-04  4.59e-02  1.14e-02     6.4
               *** Scaled step length from 1.089012 to 0.200000 ***
   51    -594.6965500973591361    -2.18e-04  1.29e-02  1.36e+00  1.11e-02     6.2
               *** Scaled step length from 0.240612 to 0.200000 ***
   52    -594.6481035965151705     4.84e-02  1.34e-02  1.39e+00  4.97e-02     6.7
   53    -594.6868802718337292    -3.88e-02  8.48e-03  1.54e+00  2.95e-02     6.6
   54    -594.6933960177035488    -6.52e-03  4.88e-03  3.48e-01  1.87e-02     6.2
   55    -594.6976847663421495    -4.29e-03  2.59e-03  4.27e-01  1.80e-02     6.4
   56    -594.6969738602884945     7.11e-04  3.63e-04  5.74e-02  2.22e-02     6.1
   57    -594.6973880062490707    -4.14e-04  3.67e-03  6.02e-01  3.29e-02     5.6
   58    -594.6976547767986858    -2.67e-04  9.54e-05  1.44e-02  5.79e-03     6.2
   59    -594.6976610384805326    -6.26e-06  7.38e-04  1.26e-01  5.70e-03     5.1
   60    -594.6977125913884947    -5.16e-05  3.67e-04  6.52e-02  4.21e-03     5.7
   61    -594.6976915778935791     2.10e-05  2.01e-04  3.64e-02  4.85e-03     5.3
               *** Restarting incremental Fock matrix formation ***
   62    -594.6977029519053985    -1.14e-05  9.63e-04  1.61e-01  5.01e-03     6.9
   63    -594.6977190684468724    -1.61e-05  4.64e-05  7.43e-03  1.44e-03     5.7
   64    -594.6977185251081437     5.43e-07  8.10e-04  1.29e-01  1.46e-03     4.6
                 **** Energy Check signals convergence ****

               *****************************************************
               *                     SUCCESS                       *
               *           SCF CONVERGED AFTER  64 CYCLES          *
               *****************************************************

Recomputing exchange energy using gridx3       ... done (   10.221 sec)
Old exchange energy                            :    -13.177793051 Eh
New exchange energy                            :    -13.177772160 Eh
Exchange energy change after final integration :      0.000020891 Eh
Total energy after final integration           :   -594.697697634 Eh
             **** ENERGY FILE WAS UPDATED (delta-relaxed.c2.b97.en.tmp) ****

----------------
TOTAL SCF ENERGY
----------------

Total Energy       :       -594.69769763419151 Eh          -16182.54706 eV

Components:
Nuclear Repulsion  :        501.75517524376812 Eh           13653.45245 eV
Electronic Energy  :      -1096.45289376887604 Eh          -29836.00007 eV
One Electron Energy:      -1803.77585875815703 Eh          -49083.23646 eV
Two Electron Energy:        707.32296498928088 Eh           19247.23639 eV

Virial components:
Potential Energy   :      -1186.89390666461532 Eh          -32297.02515 eV
Kinetic Energy     :        592.19620903042369 Eh           16114.47809 eV
Virial Ratio       :          2.00422408749942

DFT components:
N(Alpha)           :       34.999972553460 electrons
N(Beta)            :       35.999969963257 electrons
N(Total)           :       70.999942516718 electrons
E(XC)              :      -57.489953162455 Eh       

---------------
SCF CONVERGENCE
---------------

  Last Energy change         ...   -5.4334e-07  Tolerance :   1.0000e-06
  Last MAX-Density change    ...    1.2931e-01  Tolerance :   1.0000e-05
  Last RMS-Density change    ...    8.0974e-04  Tolerance :   1.0000e-06
  Last Orbital Gradient      ...    1.4590e-03  Tolerance :   5.0000e-05
  Last Orbital Rotation      ...    5.2406e-04  Tolerance :   5.0000e-05


----------------------
UHF SPIN CONTAMINATION
----------------------

Warning: in a DFT calculation there is little theoretical justification to 
         calculate <S**2> as in Hartree-Fock theory. We will do it anyways
         but you should keep in mind that the values have only limited relevance

Expectation value of <S**2>     :     0.759336
Ideal value S*(S+1) for S=-0.5   :    -0.250000
Deviation                       :     1.009336


*These are the orbital occupations and energies sorted by energy.
 They are here for reference and WILL NOT be used further.
 From now on, including in the GBW file, the orbitals will be
 sorted by occupation to avoid holes in the occupied space.
----------------
ORBITAL ENERGIES
----------------
                 SPIN UP ORBITALS
  NO   OCC          E(Eh)            E(eV) 
   0   1.0000     -24.855479      -676.3520 
   1   1.0000     -24.854846      -676.3347 
   2   1.0000     -24.851574      -676.2457 
   3   1.0000     -19.454783      -529.3916 
   4   1.0000     -19.331674      -526.0416 
   5   0.0000     -11.056398      -300.8599 
   6   1.0000     -10.590069      -288.1704 
   7   1.0000     -10.522154      -286.3224 
   8   1.0000     -10.430602      -283.8311 
   9   1.0000      -1.484227       -40.3879 
  10   1.0000      -1.397653       -38.0321 
  11   1.0000      -1.392497       -37.8918 
  12   1.0000      -1.390728       -37.8436 
  13   1.0000      -1.272289       -34.6208 
  14   1.0000      -1.116613       -30.3846 
  15   1.0000      -0.958407       -26.0796 
  16   1.0000      -0.920677       -25.0529 
  17   1.0000      -0.869675       -23.6651 
  18   1.0000      -0.839137       -22.8341 
  19   1.0000      -0.793947       -21.6044 
  20   1.0000      -0.759492       -20.6668 
  21   1.0000      -0.757296       -20.6071 
  22   1.0000      -0.738264       -20.0892 
  23   1.0000      -0.706127       -19.2147 
  24   1.0000      -0.682866       -18.5817 
  25   1.0000      -0.654095       -17.7988 
  26   1.0000      -0.640943       -17.4409 
  27   1.0000      -0.630293       -17.1511 
  28   1.0000      -0.625950       -17.0330 
  29   1.0000      -0.623636       -16.9700 
  30   1.0000      -0.596634       -16.2352 
  31   1.0000      -0.589662       -16.0455 
  32   1.0000      -0.580755       -15.8031 
  33   1.0000      -0.567079       -15.4310 
  34   1.0000      -0.565381       -15.3848 
  35   1.0000      -0.503930       -13.7126 
  36   0.0000      -0.229750        -6.2518 
  37   0.0000      -0.216516        -5.8917 
  38   0.0000      -0.196120        -5.3367 
  39   0.0000      -0.164191        -4.4679 
  40   0.0000      -0.132822        -3.6143 
  41   0.0000      -0.117487        -3.1970 
  42   0.0000      -0.099210        -2.6996 
  43   0.0000      -0.088549        -2.4095 
  44   0.0000      -0.088214        -2.4004 
  45   0.0000      -0.059804        -1.6273 

                 SPIN DOWN ORBITALS
  NO   OCC          E(Eh)            E(eV) 
   0   1.0000     -24.855490      -676.3523 
   1   1.0000     -24.854839      -676.3346 
   2   1.0000     -24.851545      -676.2449 
   3   1.0000     -19.453686      -529.3617 
   4   1.0000     -19.331627      -526.0403 
   5   1.0000     -12.666790      -344.6809 
   6   1.0000     -10.589969      -288.1677 
   7   1.0000     -10.522168      -286.3228 
   8   1.0000     -10.430029      -283.8155 
   9   1.0000      -1.484176       -40.3865 
  10   1.0000      -1.401599       -38.1394 
  11   1.0000      -1.392498       -37.8918 
  12   1.0000      -1.391023       -37.8517 
  13   1.0000      -1.274169       -34.6719 
  14   1.0000      -1.144422       -31.1413 
  15   1.0000      -0.961810       -26.1722 
  16   1.0000      -0.931148       -25.3378 
  17   1.0000      -0.873796       -23.7772 
  18   1.0000      -0.852992       -23.2111 
  19   1.0000      -0.794976       -21.6324 
  20   1.0000      -0.759665       -20.6715 
  21   1.0000      -0.759512       -20.6674 
  22   1.0000      -0.745209       -20.2782 
  23   1.0000      -0.710379       -19.3304 
  24   1.0000      -0.683343       -18.5947 
  25   1.0000      -0.655392       -17.8341 
  26   1.0000      -0.640412       -17.4265 
  27   1.0000      -0.630888       -17.1673 
  28   1.0000      -0.625903       -17.0317 
  29   1.0000      -0.623788       -16.9741 
  30   1.0000      -0.596849       -16.2411 
  31   1.0000      -0.589646       -16.0451 
  32   1.0000      -0.581528       -15.8242 
  33   1.0000      -0.567036       -15.4298 
  34   1.0000      -0.564910       -15.3720 
  35   1.0000      -0.503924       -13.7125 
  36   0.0000      -0.237904        -6.4737 
  37   0.0000      -0.229649        -6.2491 
  38   0.0000      -0.204843        -5.5741 
  39   0.0000      -0.171698        -4.6721 
  40   0.0000      -0.136151        -3.7049 
  41   0.0000      -0.119070        -3.2401 
  42   0.0000      -0.105611        -2.8738 
  43   0.0000      -0.089680        -2.4403 
  44   0.0000      -0.088847        -2.4177 
  45   0.0000      -0.061282        -1.6676 
  46   0.0000      -0.057461        -1.5636 
*Only the first 10 virtual orbitals were printed.

*These are the orbitals as used from here on.
----------------
ORBITAL ENERGIES
----------------
                 SPIN UP ORBITALS
  NO   OCC          E(Eh)            E(eV) 
   0   1.0000     -24.855479      -676.3520 
   1   1.0000     -24.854846      -676.3347 
   2   1.0000     -24.851574      -676.2457 
   3   1.0000     -19.454783      -529.3916 
   4   1.0000     -19.331674      -526.0416 
   5   1.0000     -10.590069      -288.1704 
   6   1.0000     -10.522154      -286.3224 
   7   1.0000     -10.430602      -283.8311 
   8   1.0000      -1.484227       -40.3879 
   9   1.0000      -1.397653       -38.0321 
  10   1.0000      -1.392497       -37.8918 
  11   1.0000      -1.390728       -37.8436 
  12   1.0000      -1.272289       -34.6208 
  13   1.0000      -1.116613       -30.3846 
  14   1.0000      -0.958407       -26.0796 
  15   1.0000      -0.920677       -25.0529 
  16   1.0000      -0.869675       -23.6651 
  17   1.0000      -0.839137       -22.8341 
  18   1.0000      -0.793947       -21.6044 
  19   1.0000      -0.759492       -20.6668 
  20   1.0000      -0.757296       -20.6071 
  21   1.0000      -0.738264       -20.0892 
  22   1.0000      -0.706127       -19.2147 
  23   1.0000      -0.682866       -18.5817 
  24   1.0000      -0.654095       -17.7988 
  25   1.0000      -0.640943       -17.4409 
  26   1.0000      -0.630293       -17.1511 
  27   1.0000      -0.625950       -17.0330 
  28   1.0000      -0.623636       -16.9700 
  29   1.0000      -0.596634       -16.2352 
  30   1.0000      -0.589662       -16.0455 
  31   1.0000      -0.580755       -15.8031 
  32   1.0000      -0.567079       -15.4310 
  33   1.0000      -0.565381       -15.3848 
  34   1.0000      -0.503930       -13.7126 
  35   0.0000     -11.056398      -300.8599 
  36   0.0000      -0.229750        -6.2518 
  37   0.0000      -0.216516        -5.8917 
  38   0.0000      -0.196120        -5.3367 
  39   0.0000      -0.164191        -4.4679 
  40   0.0000      -0.132822        -3.6143 
  41   0.0000      -0.117487        -3.1970 
  42   0.0000      -0.099210        -2.6996 
  43   0.0000      -0.088549        -2.4095 
  44   0.0000      -0.088214        -2.4004 
  45   0.0000      -0.059804        -1.6273 

                 SPIN DOWN ORBITALS
  NO   OCC          E(Eh)            E(eV) 
   0   1.0000     -24.855490      -676.3523 
   1   1.0000     -24.854839      -676.3346 
   2   1.0000     -24.851545      -676.2449 
   3   1.0000     -19.453686      -529.3617 
   4   1.0000     -19.331627      -526.0403 
   5   1.0000     -12.666790      -344.6809 
   6   1.0000     -10.589969      -288.1677 
   7   1.0000     -10.522168      -286.3228 
   8   1.0000     -10.430029      -283.8155 
   9   1.0000      -1.484176       -40.3865 
  10   1.0000      -1.401599       -38.1394 
  11   1.0000      -1.392498       -37.8918 
  12   1.0000      -1.391023       -37.8517 
  13   1.0000      -1.274169       -34.6719 
  14   1.0000      -1.144422       -31.1413 
  15   1.0000      -0.961810       -26.1722 
  16   1.0000      -0.931148       -25.3378 
  17   1.0000      -0.873796       -23.7772 
  18   1.0000      -0.852992       -23.2111 
  19   1.0000      -0.794976       -21.6324 
  20   1.0000      -0.759665       -20.6715 
  21   1.0000      -0.759512       -20.6674 
  22   1.0000      -0.745209       -20.2782 
  23   1.0000      -0.710379       -19.3304 
  24   1.0000      -0.683343       -18.5947 
  25   1.0000      -0.655392       -17.8341 
  26   1.0000      -0.640412       -17.4265 
  27   1.0000      -0.630888       -17.1673 
  28   1.0000      -0.625903       -17.0317 
  29   1.0000      -0.623788       -16.9741 
  30   1.0000      -0.596849       -16.2411 
  31   1.0000      -0.589646       -16.0451 
  32   1.0000      -0.581528       -15.8242 
  33   1.0000      -0.567036       -15.4298 
  34   1.0000      -0.564910       -15.3720 
  35   1.0000      -0.503924       -13.7125 
  36   0.0000      -0.237904        -6.4737 
  37   0.0000      -0.229649        -6.2491 
  38   0.0000      -0.204843        -5.5741 
  39   0.0000      -0.171698        -4.6721 
  40   0.0000      -0.136151        -3.7049 
  41   0.0000      -0.119070        -3.2401 
  42   0.0000      -0.105611        -2.8738 
  43   0.0000      -0.089680        -2.4403 
  44   0.0000      -0.088847        -2.4177 
  45   0.0000      -0.061282        -1.6676 
  46   0.0000      -0.057461        -1.5636 
*Only the first 10 virtual orbitals were printed.

                    ********************************
                    * MULLIKEN POPULATION ANALYSIS *
                    ********************************

--------------------------------------------
MULLIKEN ATOMIC CHARGES AND SPIN POPULATIONS
--------------------------------------------
   0 C :   -0.235927    0.114913
   1 H :    0.307029   -0.001071
   2 H :    0.253969   -0.002095
   3 H :    0.255915   -0.002587
   4 C :   -1.507157   -1.410810
   5 H :    1.090577    0.150989
   6 H :    1.076761    0.147893
   7 O :   -0.426484   -0.027016
   8 C :    0.343510    0.020060
   9 O :   -0.346495    0.003224
  10 C :    0.799095    0.004605
  11 F :   -0.214423   -0.000079
  12 F :   -0.182527    0.001643
  13 F :   -0.213844    0.000332
Sum of atomic charges         :    1.0000000
Sum of atomic spin populations:   -1.0000000

-----------------------------------------------------
MULLIKEN REDUCED ORBITAL CHARGES AND SPIN POPULATIONS
-----------------------------------------------------
CHARGE
  0 C s       :     2.997043  s :     2.997043
      pz      :     1.273254  p :     3.223885
      px      :     0.954213
      py      :     0.996418
      dz2     :     0.017165  d :     0.009894
      dxz     :    -0.032713
      dyz     :     0.005042
      dx2y2   :    -0.005380
      dxy     :     0.025779
      f0      :     0.000534  f :     0.005106
      f+1     :     0.000252
      f-1     :     0.001119
      f+2     :    -0.000078
      f-2     :     0.000918
      f+3     :     0.000974
      f-3     :     0.001387

  1 H s       :     0.644253  s :     0.644253
      pz      :     0.008761  p :     0.048717
      px      :     0.030642
      py      :     0.009314

  2 H s       :     0.674424  s :     0.674424
      pz      :     0.032102  p :     0.071607
      px      :     0.013258
      py      :     0.026247

  3 H s       :     0.673983  s :     0.673983
      pz      :     0.034077  p :     0.070102
      px      :     0.011932
      py      :     0.024092

  4 C s       :     3.546930  s :     3.546930
      pz      :     1.799843  p :     3.858004
      px      :     0.795352
      py      :     1.262810
      dz2     :    -0.008186  d :     0.092892
      dxz     :     0.012056
      dyz     :     0.078798
      dx2y2   :     0.019520
      dxy     :    -0.009297
      f0      :     0.001401  f :     0.009330
      f+1     :    -0.000385
      f-1     :     0.001878
      f+2     :     0.000601
      f-2     :     0.001806
      f+3     :     0.002596
      f-3     :     0.001433

  5 H s       :    -0.118450  s :    -0.118450
      pz      :     0.002091  p :     0.027873
      px      :     0.014824
      py      :     0.010958

  6 H s       :    -0.109217  s :    -0.109217
      pz      :     0.001473  p :     0.032455
      px      :     0.017358
      py      :     0.013624

  7 O s       :     3.908958  s :     3.908958
      pz      :     1.768649  p :     4.461333
      px      :     1.139506
      py      :     1.553178
      dz2     :     0.009857  d :     0.053626
      dxz     :     0.011172
      dyz     :     0.005221
      dx2y2   :     0.019239
      dxy     :     0.008137
      f0      :     0.000355  f :     0.002567
      f+1     :     0.000480
      f-1     :     0.000211
      f+2     :     0.000097
      f-2     :     0.000314
      f+3     :     0.000524
      f-3     :     0.000586

  8 C s       :     3.257729  s :     3.257729
      pz      :     0.742480  p :     2.088904
      px      :     0.650994
      py      :     0.695430
      dz2     :     0.009282  d :     0.286130
      dxz     :     0.048350
      dyz     :     0.062332
      dx2y2   :     0.024103
      dxy     :     0.142063
      f0      :     0.003102  f :     0.023727
      f+1     :     0.001310
      f-1     :     0.001856
      f+2     :     0.002675
      f-2     :     0.002411
      f+3     :     0.008476
      f-3     :     0.003896

  9 O s       :     3.950533  s :     3.950533
      pz      :     1.337099  p :     4.354175
      px      :     1.762661
      py      :     1.254415
      dz2     :     0.001679  d :     0.039833
      dxz     :    -0.000680
      dyz     :     0.017481
      dx2y2   :     0.012777
      dxy     :     0.008576
      f0      :     0.000208  f :     0.001954
      f+1     :     0.000024
      f-1     :     0.000178
      f+2     :     0.000493
      f-2     :     0.000021
      f+3     :     0.000603
      f-3     :     0.000427

 10 C s       :     3.083224  s :     3.083224
      pz      :     0.493445  p :     1.594355
      px      :     0.583607
      py      :     0.517304
      dz2     :     0.111931  d :     0.482208
      dxz     :     0.094649
      dyz     :     0.083038
      dx2y2   :     0.087656
      dxy     :     0.104935
      f0      :     0.007875  f :     0.041117
      f+1     :     0.005251
      f-1     :     0.006267
      f+2     :     0.004659
      f-2     :     0.007646
      f+3     :     0.005933
      f-3     :     0.003486

 11 F s       :     3.998742  s :     3.998742
      pz      :     1.648397  p :     5.199374
      px      :     1.905387
      py      :     1.645591
      dz2     :     0.000925  d :     0.015547
      dxz     :     0.001983
      dyz     :     0.007505
      dx2y2   :     0.004187
      dxy     :     0.000948
      f0      :     0.000093  f :     0.000759
      f+1     :     0.000026
      f-1     :     0.000237
      f+2     :     0.000195
      f-2     :     0.000111
      f+3     :     0.000048
      f-3     :     0.000049

 12 F s       :     3.999171  s :     3.999171
      pz      :     1.880775  p :     5.168595
      px      :     1.533922
      py      :     1.753897
      dz2     :     0.001725  d :     0.013952
      dxz     :     0.002305
      dyz     :    -0.000257
      dx2y2   :     0.003543
      dxy     :     0.006637
      f0      :     0.000074  f :     0.000810
      f+1     :     0.000110
      f-1     :     0.000055
      f+2     :     0.000033
      f-2     :     0.000118
      f+3     :     0.000172
      f-3     :     0.000248

 13 F s       :     3.998565  s :     3.998565
      pz      :     1.511203  p :     5.199436
      px      :     1.898591
      py      :     1.789642
      dz2     :     0.004503  d :     0.015088
      dxz     :     0.002475
      dyz     :     0.005280
      dx2y2   :     0.002262
      dxy     :     0.000568
      f0      :     0.000185  f :     0.000755
      f+1     :     0.000090
      f-1     :     0.000282
      f+2     :     0.000091
      f-2     :     0.000086
      f+3     :     0.000012
      f-3     :     0.000009


SPIN
  0 C s       :     0.052838  s :     0.052838
      pz      :     0.006146  p :     0.053034
      px      :     0.021104
      py      :     0.025784
      dz2     :     0.001106  d :     0.009433
      dxz     :     0.004199
      dyz     :     0.003369
      dx2y2   :     0.001633
      dxy     :    -0.000874
      f0      :    -0.000030  f :    -0.000392
      f+1     :    -0.000025
      f-1     :    -0.000054
      f+2     :    -0.000003
      f-2     :    -0.000051
      f+3     :    -0.000082
      f-3     :    -0.000146

  1 H s       :    -0.000888  s :    -0.000888
      pz      :     0.000353  p :    -0.000183
      px      :    -0.000898
      py      :     0.000361

  2 H s       :    -0.000172  s :    -0.000172
      pz      :    -0.000474  p :    -0.001923
      px      :    -0.000288
      py      :    -0.001160

  3 H s       :    -0.000647  s :    -0.000647
      pz      :    -0.000734  p :    -0.001940
      px      :    -0.000135
      py      :    -0.001071

  4 C s       :    -1.283503  s :    -1.283503
      pz      :    -0.108812  p :    -0.133451
      px      :     0.005288
      py      :    -0.029927
      dz2     :     0.002871  d :     0.005652
      dxz     :    -0.000265
      dyz     :    -0.004384
      dx2y2   :     0.002429
      dxy     :     0.005001
      f0      :     0.000006  f :     0.000491
      f+1     :     0.000159
      f-1     :     0.000033
      f+2     :     0.000089
      f-2     :    -0.000005
      f+3     :     0.000081
      f-3     :     0.000128

  5 H s       :     0.150657  s :     0.150657
      pz      :     0.002299  p :     0.000332
      px      :    -0.000685
      py      :    -0.001281

  6 H s       :     0.148468  s :     0.148468
      pz      :     0.001934  p :    -0.000576
      px      :    -0.001175
      py      :    -0.001334

  7 O s       :    -0.013522  s :    -0.013522
      pz      :    -0.002334  p :    -0.006401
      px      :    -0.002480
      py      :    -0.001588
      dz2     :    -0.002338  d :    -0.007067
      dxz     :    -0.000975
      dyz     :    -0.000106
      dx2y2   :    -0.006486
      dxy     :     0.002838
      f0      :     0.000003  f :    -0.000026
      f+1     :     0.000000
      f-1     :    -0.000000
      f+2     :     0.000001
      f-2     :    -0.000008
      f+3     :    -0.000009
      f-3     :    -0.000012

  8 C s       :    -0.009964  s :    -0.009964
      pz      :     0.000265  p :     0.015695
      px      :     0.007789
      py      :     0.007641
      dz2     :     0.000713  d :     0.014184
      dxz     :     0.001044
      dyz     :    -0.000016
      dx2y2   :     0.013075
      dxy     :    -0.000633
      f0      :     0.000002  f :     0.000146
      f+1     :     0.000002
      f-1     :     0.000001
      f+2     :    -0.000003
      f-2     :     0.000000
      f+3     :     0.000153
      f-3     :    -0.000009

  9 O s       :    -0.000133  s :    -0.000133
      pz      :    -0.000286  p :     0.002802
      px      :     0.001862
      py      :     0.001225
      dz2     :     0.000320  d :     0.000556
      dxz     :     0.000024
      dyz     :     0.000014
      dx2y2   :    -0.000016
      dxy     :     0.000214
      f0      :     0.000000  f :    -0.000000
      f+1     :    -0.000000
      f-1     :     0.000000
      f+2     :     0.000000
      f-2     :    -0.000000
      f+3     :    -0.000001
      f-3     :     0.000000

 10 C s       :     0.005046  s :     0.005046
      pz      :    -0.000009  p :    -0.001337
      px      :    -0.003445
      py      :     0.002118
      dz2     :     0.000042  d :     0.000881
      dxz     :    -0.000136
      dyz     :     0.000061
      dx2y2   :     0.000022
      dxy     :     0.000893
      f0      :    -0.000001  f :     0.000014
      f+1     :     0.000000
      f-1     :    -0.000003
      f+2     :    -0.000001
      f-2     :    -0.000002
      f+3     :     0.000013
      f-3     :     0.000007

 11 F s       :    -0.000277  s :    -0.000277
      pz      :    -0.000035  p :     0.000291
      px      :     0.000158
      py      :     0.000168
      dz2     :    -0.000011  d :    -0.000092
      dxz     :    -0.000006
      dyz     :     0.000039
      dx2y2   :    -0.000122
      dxy     :     0.000009
      f0      :    -0.000000  f :     0.000000
      f+1     :     0.000000
      f-1     :    -0.000000
      f+2     :    -0.000000
      f-2     :     0.000000
      f+3     :     0.000000
      f-3     :     0.000000

 12 F s       :     0.000456  s :     0.000456
      pz      :     0.000018  p :     0.001328
      px      :     0.001163
      py      :     0.000147
      dz2     :    -0.000040  d :    -0.000141
      dxz     :    -0.000005
      dyz     :    -0.000001
      dx2y2   :    -0.000091
      dxy     :    -0.000004
      f0      :     0.000000  f :     0.000000
      f+1     :     0.000000
      f-1     :     0.000000
      f+2     :     0.000000
      f-2     :     0.000000
      f+3     :     0.000000
      f-3     :     0.000000

 13 F s       :     0.000061  s :     0.000061
      pz      :    -0.000080  p :     0.000289
      px      :     0.000124
      py      :     0.000245
      dz2     :    -0.000015  d :    -0.000017
      dxz     :     0.000008
      dyz     :     0.000041
      dx2y2   :    -0.000079
      dxy     :     0.000028
      f0      :     0.000000  f :     0.000000
      f+1     :     0.000000
      f-1     :    -0.000000
      f+2     :    -0.000000
      f-2     :     0.000000
      f+3     :     0.000000
      f-3     :    -0.000000



                     *******************************
                     * LOEWDIN POPULATION ANALYSIS *
                     *******************************

      **** WARNING: LOEWDIN FINDS   71.0000000 ELECTRONS INSTEAD OF 72 ****
                     **** SKIPPING LOEWDIN ANALYSIS ****

                      *****************************
                      * MAYER POPULATION ANALYSIS *
                      *****************************

  NA   - Mulliken gross atomic population
  ZA   - Total nuclear charge
  QA   - Mulliken gross atomic charge
  VA   - Mayer's total valence
  BVA  - Mayer's bonded valence
  FA   - Mayer's free valence

  ATOM       NA         ZA         QA         VA         BVA        FA
  0 C      6.2359     6.0000    -0.2359     3.0213     3.0081     0.0132
  1 H      0.6930     1.0000     0.3070     1.0124     1.0124     0.0000
  2 H      0.7460     1.0000     0.2540     1.1100     1.1100    -0.0000
  3 H      0.7441     1.0000     0.2559     1.1067     1.1067     0.0000
  4 C      7.5072     6.0000    -1.5072     1.0179    -0.0255     1.0434
  5 H     -0.0906     1.0000     1.0906    -0.2196    -0.2438     0.0242
  6 H     -0.0768     1.0000     1.0768    -0.1815    -0.2049     0.0234
  7 O      8.4265     8.0000    -0.4265     2.0023     2.0008     0.0014
  8 C      5.6565     6.0000     0.3435     4.2481     4.2476     0.0004
  9 O      8.3465     8.0000    -0.3465     2.0488     2.0488     0.0000
 10 C      5.2009     6.0000     0.7991     3.7403     3.7403     0.0000
 11 F      9.2144     9.0000    -0.2144     1.0968     1.0968     0.0000
 12 F      9.1825     9.0000    -0.1825     1.1133     1.1133     0.0000
 13 F      9.2138     9.0000    -0.2138     1.0921     1.0921     0.0000

  Mayer bond orders larger than 0.100000
B(  0-C ,  1-H ) :   0.9056 B(  0-C ,  2-H ) :   0.9862 B(  0-C ,  3-H ) :   0.9799 
B(  4-C ,  5-H ) :  -0.4062 B(  4-C ,  6-H ) :  -0.3694 B(  4-C ,  7-O ) :   0.8878 
B(  4-C ,  8-C ) :  -0.2127 B(  4-C ,  9-O ) :   0.1034 B(  7-O ,  8-C ) :   0.8994 
B(  8-C ,  9-O ) :   1.8848 B(  8-C , 10-C ) :   1.1339 B(  8-C , 11-F ) :   0.1476 
B(  8-C , 12-F ) :   0.1698 B(  8-C , 13-F ) :   0.1451 B( 10-C , 11-F ) :   0.8538 
B( 10-C , 12-F ) :   0.8673 B( 10-C , 13-F ) :   0.8549 

-------
TIMINGS
-------

Total SCF time: 0 days 0 hours 6 min 55 sec 

Total time                  ....     415.639 sec
Sum of individual times     ....     414.862 sec  ( 99.8%)

SCF preparation             ....       0.511 sec  (  0.1%)
Fock matrix formation       ....     400.374 sec  ( 96.3%)
  Startup                   ....       0.394 sec  (  0.1% of F)
  Split-RI-J                ....      16.590 sec  (  4.1% of F)
  Chain of spheres X        ....     301.662 sec  ( 75.3% of F)
  XC integration            ....      78.970 sec  ( 19.7% of F)
    XC Preparation          ....       0.000 sec  (  0.0% of XC)
    Basis function eval.    ....      10.932 sec  ( 13.8% of XC)
    Density eval.           ....      22.747 sec  ( 28.8% of XC)
    XC-Functional eval.     ....       1.153 sec  (  1.5% of XC)
    XC-Potential eval.      ....      39.276 sec  ( 49.7% of XC)
Diagonalization             ....       0.000 sec  (  0.0%)
Density matrix formation    ....       1.861 sec  (  0.4%)
Total Energy calculation    ....       0.485 sec  (  0.1%)
Population analysis         ....       0.084 sec  (  0.0%)
Orbital Transformation      ....       0.120 sec  (  0.0%)
Orbital Orthonormalization  ....       0.000 sec  (  0.0%)
SOSCF solution              ....      11.427 sec  (  2.7%)
Finished LeanSCF after 415.7 sec

Maximum memory used throughout the entire LEANSCF-calculation: 46.2 MB

-------------------------   --------------------
FINAL SINGLE POINT ENERGY      -594.697697634192
-------------------------   --------------------



           ************************************************************
           *        Program running with 4 parallel MPI-processes     *
           *              working on a common directory               *
           ************************************************************

------------------------------------------------------------------------------
                              ORCA PROPERTY CALCULATIONS
------------------------------------------------------------------------------

GBWName                                 ... delta-relaxed.c2.b97.gbw
Number of atoms                         ...     14
Number of basis functions               ...    393
Max core memory                         ...   1024 MB

Electric properties:
Dipole moment                           ... YES
Quadrupole moment                       ...  NO
Static polarizability (Dipole/Dipole)   ...  NO
Static polarizability (Dipole/Quad.)    ...  NO
Static polarizability (Quad./Quad.)     ...  NO
Static polarizability (Velocity)        ...  NO

Atomic electric properties:
Dipole moment                           ...  NO
Quadrupole moment                       ...  NO
Static polarizability                   ...  NO

Choice of electric origin               ... Center of mass
Position of electric origin             ...    -1.473610     2.169321     0.083978

General magnetic properties:
Magnetizability                         ...  NO

EPR properties:
g-Tensor (aka g-matrix)                 ...  NO
Zero-Field splitting spin-orbit         ...  NO
Zero-field splitting spin-spin          ...  NO
Hyperfine couplings                     ...  NO (   0 nuclei)
Quadrupole couplings                    ...  NO (   0 nuclei)
Contact density                         ...  NO (   0 nuclei)

NMR properties:
Chemical shifts                         ...  NO (   0 nuclei)
Spin-rotation constants                 ...  NO (   0 nuclei)
Spin-spin couplings                     ...  NO (   0 nuclei,    0 pairs)

Choice of magnetic origin               ... GIAO
Position of magnetic origin             ...     0.000000     0.000000     0.000000

Properties with geometric perturbations:
SCF Hessian                             ...  NO
IR spectrum                             ...  NO
VCD spectrum                            ...  NO
X-ray spectroscopy properties:
SCF XES/XAS/RIXS spectra                ...  NO


-------------
DIPOLE MOMENT
-------------

Method             : SCF
Type of density    : Electron Density
Multiplicity       :   1
Irrep              :   0
Energy             :  -594.6976976341915133 Eh
Relativity type    : 
Basis              : AO
                                X                 Y                 Z
Electronic contribution:    -14.564351808      -1.309030087       0.629194402
Nuclear contribution   :     19.573122213       1.861246739      -0.859319080
                        -----------------------------------------
Total Dipole Moment    :      5.008770404       0.552216653      -0.230124678
                        -----------------------------------------
Magnitude (a.u.)       :      5.044371275
Magnitude (Debye)      :     12.821772819



--------------------
Rotational spectrum 
--------------------
 
Rotational constants in cm-1:             0.103599             0.032596             0.028834 
Rotational constants in MHz :          3105.823699           977.195472           864.408930 

Dipole components along the rotational axes: 
x,y,z [a.u.] :     5.042002     0.154038     0.013113 
x,y,z [Debye]:    12.815750     0.391534     0.033330 

 

Dipole moment calculation done in   0.0 sec 

Maximum memory used throughout the entire PROP-calculation: 25.3 MB

--------------------------------
SUGGESTED CITATIONS FOR THIS RUN
--------------------------------

Below you find a list of papers that are relevant to this ORCA run
We neither can nor want to force you to cite these papers, but we appreciate if you do
You receive ORCA, which is the product of decades of hard work by many enthusiastic individuals, for free
The only thing we kindly ask in return is that you cite our papers,
We deeply appreciate it, if you show your appreciation for ORCA by not just citing the generic ORCA reference.

Please note that relegating all ORCA citations to the supporting information does *not* help us.
SI sections are not indexed - citations you put there will not count into any citation statistics
But we need these citations in order to attract the funding resources that allow us to do what we are doing

Therefore, if you are a happy ORCA user, please consider citing a few of the papers listed below in the main body of your paper

In addition to the list printed below, the program has created the file delta-relaxed.c2.b97.bibtex that contains the list in bibtex format
You can import this file easily into all common literature databanks and citation aid programs


List of essential papers. We consider these as the minimum necessary citations

  1. Neese,F.
     Software update: the ORCA program system, version 5.0
     WIRES Comput. Molec. Sci., 2022 12(1)e1606
     doi.org/10.1002/wcms.1606

List of papers to cite with high priority. The work reported in these papers was absolutely
necessary for this run to complete.
Our perspective: the developers of density functionals and basis sets usually get cited in chemistry papers
Good! But without the algorithms to do something with them, the functionals or basis sets would not do anything.
Hence, in our opinion, the algorithm design and method developments papers are equally worthy of getting cited

  1. Neese,F.
     An improvement of the resolution of the identity approximation for the formation of the Coulomb matrix
     J. Comp. Chem., 2003 24(14)1740-1747
     doi.org/10.1002/jcc.10318
  2. Neese,F.; Wennmohs,F.; Hansen,A.; Becker,U.
     Efficient, approximate and parallel Hartree-Fock and hybrid DFT calculations. A 'chain-of-spheres' algorithm for the Hartree-Fock exchange
     Chem. Phys., 2009 356(1-3)98-109
     doi.org/10.1016/j.chemphys.2008.10.036
  3. Selenius,E.; Sigurdarson,A.E.; Schmerwitz,Y.L.A.; Levi,G.
     Orbital-Optimized Versus Time-Dependent Density Functional
     Calculations of Intramolecular Charge Transfer Excited States
     J. Chem. Theory Comput., 2024 20(9)3809-3822
     doi.org/10.1021/acs.jctc.3c01319
  4. Helmich-Paris,B.; de Souza,B.; Neese,F.; Izsák,R.
     An improved chain of spheres for exchange algorithm
     J. Chem. Phys., 2021 155 104109
     doi.org/doi: 10.1063/5.0058766.
  5. Neese,F.
     The SHARK Integral Generation and Digestion System
     J. Comp. Chem., 2022  1-16
     doi.org/10.1002/jcc.26942

List of suggested additional citations. These are papers that are important in the 'surrounding' of 
of this run, or papers that preceded the highly important papers. If you like your results we are grateful for a citation.

  1. Izsak,R.; Neese,F.
     An overlap fitted chain of spheres exchange method
     J. Chem. Phys., 2011 135 144105
     doi.org/10.1063/1.3646921
  2. Izsak,R.; Hansen,A.; Neese,F.
     The resolution of identity and chain of spheres approximations for the LPNO-CCSD singles Fock term
     Molec. Phys., 2012 110 2413-2417
     doi.org/10.1080/00268976.2012.687466
  3. Neese,F.
     The ORCA program system
     WIRES Comput. Molec. Sci., 2012 2(1)73-78
     doi.org/10.1002/wcms.81
  4. Izsak,R.; Neese,F.; Klopper,W.
     Robust fitting techniques in the chain of spheres approximation to the Fock exchange: The role of the complementary space
     J. Chem. Phys., 2013 139 
     doi.org/10.1063/1.4819264
  5. Neese,F.
     Software update: the ORCA program system, version 4.0
     WIRES Comput. Molec. Sci., 2018 8(1)1-6
     doi.org/10.1002/wcms.1327
  6. Neese,F.; Wennmohs,F.; Becker,U.; Riplinger,C.
     The ORCA quantum chemistry program package
     J. Chem. Phys., 2020 152 Art. No. L224108
     doi.org/10.1063/5.0004608

List of optional additional citations

  1. Neese,F.
     Approximate second-order SCF convergence for spin unrestricted wavefunctions
     Chem. Phys. Lett., 2000 325(1-3)93-98
     doi.org/10.1016/s0009-2614(00)00662-x

Timings for individual modules:

Sum of individual times          ...      421.969 sec (=   7.033 min)
Startup calculation              ...        4.755 sec (=   0.079 min)   1.1 %
SCF iterations                   ...      416.741 sec (=   6.946 min)  98.8 %
Property calculations            ...        0.474 sec (=   0.008 min)   0.1 %
                             ****ORCA TERMINATED NORMALLY****
TOTAL RUN TIME: 0 days 0 hours 7 minutes 3 seconds 682 msec
