
                                 *****************
                                 * O   R   C   A *
                                 *****************

                                            #,                                       
                                            ###                                      
                                            ####                                     
                                            #####                                    
                                            ######                                   
                                           ########,                                 
                                     ,,################,,,,,                         
                               ,,#################################,,                 
                          ,,##########################################,,             
                       ,#########################################, ''#####,          
                    ,#############################################,,   '####,        
                  ,##################################################,,,,####,       
                ,###########''''           ''''###############################       
              ,#####''   ,,,,##########,,,,          '''####'''          '####       
            ,##' ,,,,###########################,,,                        '##       
           ' ,,###''''                  '''############,,,                           
         ,,##''                                '''############,,,,        ,,,,,,###''
      ,#''                                            '''#######################'''  
     '                                                          ''''####''''         
             ,#######,   #######,   ,#######,      ##                                
            ,#'     '#,  ##    ##  ,#'     '#,    #''#        ,####,   ,####,        
            ##       ##  ##   ,#'  ##            #'  '#       #'       #'  '#        
            ##       ##  #######   ##           ,######,      #####,   #    #        
            '#,     ,#'  ##    ##  '#,     ,#' ,#      #,     #,   #   #,  ,#        
             '#######'   ##     ##  '#######'  #'      '#     '####' # '####'        



                #########################################################
                #                        -***-                          #
                #          Department of theory and spectroscopy        #
                #                                                       #
                #                      Frank Neese                      #
                #                                                       #
                #     Directorship, Architecture, Infrastructure        #
                #                    SHARK, DRIVERS                     #
                #        Core code/Algorithms in most modules           #
                #                                                       #
                #        Max Planck Institute fuer Kohlenforschung      #
                #                Kaiser Wilhelm Platz 1                 #
                #                 D-45470 Muelheim/Ruhr                 #
                #                      Germany                          #
                #                                                       #
                #                  All rights reserved                  #
                #                        -***-                          #
                #########################################################


                         Program Version 6.0.1  -  RELEASE   -


 With contributions from (in alphabetic order):
[Max-Planck-Institut fuer Kohlenforschung]                               
  Daniel Aravena         : Magnetic Suceptibility                        
  Michael Atanasov       : Ab Initio Ligand Field Theory (pilot matlab implementation)
  Alexander A. Auer      : GIAO ZORA, VPT2 properties, NMR spectrum      
  Ute Becker             : All parallelization in ORCA, NUMFREQ, NUMCALC 
  Giovanni Bistoni       : ED, misc. LED, open-shell LED, HFLD           
  Martin Brehm           : Molecular dynamics                            
  Dmytro Bykov           : pre 5.0 version of the SCF Hessian            
  Marcos Casanova-Páez   : Triplet and SCS-CIS(D). UHF-(DLPNO)-IP/EA/STEOM-CCSD. UHF-CVS-IP/STEOM-CCSD   
  Vijay G. Chilkuri      : MRCI spin determinant printing, contributions to CSF-ICE 
  Pauline Colinet        : FMM embedding                                 
  Dipayan Datta          : RHF DLPNO-CCSD density                        
  Achintya Kumar Dutta   : EOM-CC, STEOM-CC                              
  Nicolas Foglia         : Exact transition moments, OPA infrastructure, MCD improvements    
  Dmitry Ganyushin       : Spin-Orbit,Spin-Spin,Magnetic field MRCI      
  Miquel Garcia-Rates    : C-PCM and meta-GGA Hessian, CCSD/C-PCM, Gaussian charge scheme 
  Tiago L. C. Gouveia    : GS-ROHF, GS-ROCIS                             
  Yang Guo               : DLPNO-NEVPT2, F12-NEVPT2, CIM, IAO-localization        
  Andreas Hansen         : Spin unrestricted coupled pair/coupled cluster methods 
  Ingolf Harden          : AUTO-CI MPn and infrastructure                
  Benjamin Helmich-Paris : MC-RPA, TRAH-(SCF,CASSCF), AVAS, COSX integrals, SCF dyn. polar. 
  Lee Huntington         : MR-EOM, pCC                                   
  Robert Izsak           : Overlap fitted RIJCOSX, COSX-SCS-MP3, EOM     
  Riya Kayal             : Wick's Theorem for AUTO-CI, AUTO-CI UHF-CCSDT 
  Emily Kempfer          : AUTO-CI, RHF CISDT and CCSDT                  
  Christian Kollmar      : KDIIS, OOCD, Brueckner-CCSD(T), CCSD density, CASPT2, CASPT2-K, improved NEVPT2 
  Axel Koslowski         : Symmetry handling                             
  Simone Kossmann        : meta-GGA functionals, TD-DFT gradient, OOMP2, (MP2 Hessian; deprecated post 5.0) 
  Lucas Lang             : DCDCAS                                        
  Marvin Lechner         : AUTO-CI (C++ implementation), FIC-MRCC        
  Spencer Leger          : CASSCF response                               
  Dagmar Lenk            : GEPOL surface, SMD, ORCA-2-JSON               
  Dimitrios Liakos       : Extrapolation schemes; Compound Job, initial MDCI parallelization 
  Dimitrios Manganas     : Further ROCIS development; embedding schemes. LFT, Crystal Embedding 
  Dimitrios Pantazis     : SARC Basis sets                               
  Anastasios Papadopoulos: AUTO-CI, single reference methods and gradients 
  Taras Petrenko         : pre 6.0 DFT Hessian and TD-DFT gradient, (ASA, deprecated), ECA, 1-Electron XAS/XES, NRVS 
  Peter Pinski           : DLPNO-MP2, DLPNO-MP2 Gradient                 
  Christoph Reimann      : Effective Core Potentials                     
  Marius Retegan         : Local ZFS, SOC                                
  Christoph Riplinger    : Optimizer, TS searches, QM/MM, DLPNO-CCSD(T), (RO)-DLPNO pert. Triples 
  Michael Roemelt        : Original ROCIS implementation                 
  Masaaki Saitow         : Open-shell DLPNO-CCSD energy and density      
  Barbara Sandhoefer     : DKH picture change effects                    
  Kantharuban Sivalingam : CASSCF convergence/infrastructure, NEVPT2 and variants, FIC-MRCI 
  Bernardo de Souza      : ESD, SOC TD-DFT                               
  Georgi L. Stoychev     : AutoAux, RI-MP2 NMR, DLPNO-MP2 response, X2C  
  Van Anh Tran           : RI-MP2 g-tensors                              
  Willem Van den Heuvel  : Paramagnetic NMR                              
  Zikuan Wang            : NOTCH, Electric field optimization            
  Frank Wennmohs         : Technical directorship and infrastructure     
  Hang Xu                : AUTO-CI-Response properties                   
                                                                         
[FACCTs GmbH]                                                            
  Markus Bursch, Miquel Garcia-Rates, Christoph Riplinger, Bernardo de Souza, Georgi L. Stoychev 
                                                                 
  APM, Basis sets (HGBS, AHGBS, def-TZVP (Ac-Lr), def2-XVPD (La-Lu)), CI-OPT, improved COSX, DLPNO-Multilevel,           
  DOCKER, DRACO, updates on ESD, GOAT, IRC, LR-CPCM, MBIS, meta-GGA TD-DFT gradient, ML-optimized integration grids, 
  MM, NACMEs, nearIR, NEB, NEB-TS, NL-DFT gradient (VV10), 2- and 3-layer-ONIOM, interface openCOSMO-RS, QMMM,   
  Crystal-QMMM, SF, symmetry and pop. for TD-DFT, r2SCAN hybrids, SOLVATOR                                   
                                                                         
[Other institutions]                                                     
  V. Asgeirsson          : NEB                                           
  Christoph Bannwarth    : sTDA-DFT, sTD-DFT, PBEh-3c, B97-3c, D3        
  Sebastian Ehlert       : rSCAN, r2SCAN, r2SCAN-3c, D4, dhf basis sets  
  Marvin Friede          : D4 for Fr, Ra, Ac-Lr                          
  Lars Goerigk           : TD-DFT with DH, B97 family of functionals     
  Stefan Grimme          : VdW corrections, initial TS optimization, DFT functionals, gCP, sTDA/sTD-DF 
  Waldemar Hujo          : DFT-NL                                        
  H. Jonsson             : NEB                                           
  Holger Kruse           : gCP                                           
  Marcel Mueller         : wB97X-3c, vDZP basis set                      
  Hagen Neugebauer       : wr2SCAN                                       
  Tobias Risthaus        : range-separated hybrid DFT                    
  Lukas Wittmann         : regularized MP2, r2SCAN double-hybrids, wr2SCAN        
                                                                         
We gratefully acknowledge several colleagues who have allowed us to      
interface, adapt or use parts of their codes:                            
  Ed Valeev, F. Pavosevic, A. Kumar             : LibInt (2-el integral package), F12 methods 
  Garnet Chan, S. Sharma, J. Yang, R. Olivares  : DMRG                   
  Ulf Ekstrom                                   : XCFun DFT Library      
  Mihaly Kallay                                 : mrcc  (arbitrary order and MRCC methods)
  Frank Weinhold                                : gennbo (NPA and NBO analysis)           
  Simon Mueller                                 : openCOSMO-RS                            
  Christopher J. Cramer and Donald G. Truhlar   : smd solvation model                     
  S Lehtola, MJT Oliveira, MAL Marques          : LibXC Library                           
  Liviu Ungur et al                             : ANISO software                          


 Your calculation uses the libint2 library for the computation of 2-el integrals
 For citations please refer to: http://libint.valeyev.net

 Your ORCA version has been built with support for libXC version: 6.2.2
 For citations please refer to: https://libxc.gitlab.io

 This ORCA versions uses:
   CBLAS   interface :  Fast vector & matrix operations
   LAPACKE interface :  Fast linear algebra routines
   SCALAPACK package :  Parallel linear algebra routines
   Shared memory     :  Shared parallel matrices
   BLAS/LAPACK       :  OpenBLAS 0.3.27  USE64BITINT DYNAMIC_ARCH NO_AFFINITY SkylakeX SINGLE_THREADED
        Core in use  :  SkylakeX
   Copyright (c) 2011-2014, The OpenBLAS Project


NOTE: MaxCore=4000 MB was set to SCF,MP2,MDCI,CIPSI,MRCI and CIS
      => If you want to overwrite this, your respective input block should be placed after the MaxCore statement
================================================================================

----- Orbital basis set information -----
Your calculation utilizes the basis: def2-TZVPP
   F. Weigend and R. Ahlrichs, Phys. Chem. Chem. Phys. 7, 3297 (2005).

----- AuxJ basis set information -----
Your calculation utilizes the auxiliary basis: def2/J
   F. Weigend, Phys. Chem. Chem. Phys. 8, 1057 (2006).

----- AuxC basis set information -----
Your calculation utilizes the auxiliary basis: def2-TZVPP/C
  H-La, Hf-Rn : A. Hellweg, C. Hattig, S. Hofener and W. Klopper, Theor. Chem. Acc. 117, 587 (2007).
        Ce-Lu : J. Chmela and M. E. Harding, Mol. Phys. (2018).

================================================================================
                                        WARNINGS
                       Please study these warnings very carefully!
================================================================================


WARNING: TCut can not be >=Thresh
  ===> : TCut is set to 0.01*Thresh
WARNING: EOM-CCSD Core IP's are only available for rootwise solver 
  ===> : switching DoRootwise true D


WARNING: Post HF methods need fully converged wavefunctions
  ===> : Setting SCFConvForced true
         You can overwrite this default with %scf ConvForced false 


WARNING: MDCI localization with Augmented Hessian Foster-Boys
  ===> : Switching off randomization!

WARNING:  Root wise solver and FollowCIS=false.
For root wise solver, CIS roots needs to be followed!
  ===> : Setting FollowCIS true

================================================================================
                                       INPUT FILE
================================================================================
NAME = ip-eom.inp
|  1> ! IP-EOM-DLPNO-CCSD def2-TZVPP def2-TZVPP/C def2/J ExtremeSCF TightPNO NoFrozenCore
|  2> 
|  3> %pal nprocs 16 end
|  4> 
|  5> %maxcore 4000
|  6> 
|  7> %output Print[P_ReducedOrbPopMO_L] 1 end
|  8> 
|  9> %mdci
| 10>  NRoots 4
| 11>  DTol 1e-7
| 12>  CVSOrb 5,8
| 13>  CVSEP true
| 14>  DoCVS true
| 15>  DoCore true
| 16>  corehole 5
| 17>  printlevel 3
| 18>  maxiter 500
| 19> end
| 20> 
| 21> * xyz 0 1
| 22>   C           2.70260032347217      0.68952349030149     -0.14592768236111
| 23>   H           3.67034545399967      1.19191221987046     -0.17598134898952
| 24>   H           2.68629433984177      0.02628304888467      0.71916788744625
| 25>   H           2.59906084239523      0.08769509815457     -1.04890893397194
| 26>   C           1.60641458154360      1.71931034005214     -0.05483968143416
| 27>   H           1.68120661791805      2.32597118764165      0.84883910424036
| 28>   H           1.59754826590271      2.39150763260952     -0.91441240484647
| 29>   O           0.34704684121517      1.01398918090280     -0.02234077891340
| 30>   C          -0.73408351572760      1.76016104784664      0.08686332068527
| 31>   O          -0.78645427363488      2.94977308234048      0.16447181700541
| 32>   C          -1.99380771774607      0.85848814585631      0.08984947806136
| 33>   F          -1.90661377868314     -0.07616663944954      1.03866910357774
| 34>   F          -3.08071513781628      1.58035248776727      0.30936367839100
| 35>   F          -2.12310784268042      0.24463067722154     -1.08987155889080
| 36> *
| 37> 
| 38>                          ****END OF INPUT****
================================================================================

                       ****************************
                       * Single Point Calculation *
                       ****************************

---------------------------------
CARTESIAN COORDINATES (ANGSTROEM)
---------------------------------
  C      2.702600    0.689523   -0.145928
  H      3.670345    1.191912   -0.175981
  H      2.686294    0.026283    0.719168
  H      2.599061    0.087695   -1.048909
  C      1.606415    1.719310   -0.054840
  H      1.681207    2.325971    0.848839
  H      1.597548    2.391508   -0.914412
  O      0.347047    1.013989   -0.022341
  C     -0.734084    1.760161    0.086863
  O     -0.786454    2.949773    0.164472
  C     -1.993808    0.858488    0.089849
  F     -1.906614   -0.076167    1.038669
  F     -3.080715    1.580352    0.309364
  F     -2.123108    0.244631   -1.089872

----------------------------
CARTESIAN COORDINATES (A.U.)
----------------------------
  NO LB      ZA    FRAG     MASS         X           Y           Z
   0 C     6.0000    0    12.011    5.107174    1.303011   -0.275763
   1 H     1.0000    0     1.008    6.935948    2.252388   -0.332557
   2 H     1.0000    0     1.008    5.076361    0.049668    1.359030
   3 H     1.0000    0     1.008    4.911513    0.165720   -1.982151
   4 C     6.0000    0    12.011    3.035684    3.249026   -0.103632
   5 H     1.0000    0     1.008    3.177020    4.395449    1.604073
   6 H     1.0000    0     1.008    3.018929    4.519294   -1.727989
   7 O     8.0000    0    15.999    0.655823    1.916162   -0.042218
   8 C     6.0000    0    12.011   -1.387217    3.326222    0.164148
   9 O     8.0000    0    15.999   -1.486183    5.574263    0.310807
  10 C     6.0000    0    12.011   -3.767751    1.622307    0.169791
  11 F     9.0000    0    18.998   -3.602978   -0.143934    1.962800
  12 F     9.0000    0    18.998   -5.821708    2.986433    0.584613
  13 F     9.0000    0    18.998   -4.012092    0.462285   -2.059559

--------------------------------
INTERNAL COORDINATES (ANGSTROEM)
--------------------------------
 C      0   0   0     0.000000000000     0.00000000     0.00000000
 H      1   0   0     1.090792508287     0.00000000     0.00000000
 H      1   2   0     1.090203702586   108.38062614     0.00000000
 H      1   2   3     1.090088518652   108.40446712   242.22709268
 C      1   2   3     1.506778404623   109.41028889   121.05509859
 H      5   1   2     1.090993391539   112.34812579   298.81683955
 H      5   1   2     1.091234657857   112.28952852    60.91241413
 O      5   1   2     1.443794037108   107.58153879   179.80170607
 C      8   5   1     1.318158123706   116.15127605   178.56612450
 O      9   8   5     1.193290646740   127.27998865   359.82346144
 C      9   8   5     1.549170101852   109.73229289   179.30608416
 F     11   9   8     1.334706346905   110.84434478    54.46812213
 F     11   9   8     1.323118419520   110.53405632   174.84707178
 F     11   9   8     1.336144168544   110.14457596   294.76072368

---------------------------
INTERNAL COORDINATES (A.U.)
---------------------------
 C      0   0   0     0.000000000000     0.00000000     0.00000000
 H      1   0   0     2.061299109596     0.00000000     0.00000000
 H      1   2   0     2.060186428075   108.38062614     0.00000000
 H      1   2   3     2.059968761984   108.40446712   242.22709268
 C      1   2   3     2.847398529245   109.41028889   121.05509859
 H      5   1   2     2.061678723926   112.34812579   298.81683955
 H      5   1   2     2.062134651194   112.28952852    60.91241413
 O      5   1   2     2.728375323923   107.58153879   179.80170607
 C      8   5   1     2.490957855007   116.15127605   178.56612450
 O      9   8   5     2.254992520509   127.27998865   359.82346144
 C      9   8   5     2.927507227358   109.73229289   179.30608416
 F     11   9   8     2.522229464858   110.84434478    54.46812213
 F     11   9   8     2.500331455639   110.53405632   174.84707178
 F     11   9   8     2.524946553984   110.14457596   294.76072368

---------------------
BASIS SET INFORMATION
---------------------
There are 4 groups of distinct atoms

 Group   1 Type C   : 11s6p2d1f contracted to 5s3p2d1f pattern {62111/411/11/1}
 Group   2 Type H   : 5s2p1d contracted to 3s2p1d pattern {311/11/1}
 Group   3 Type O   : 11s6p2d1f contracted to 5s3p2d1f pattern {62111/411/11/1}
 Group   4 Type F   : 11s6p2d1f contracted to 5s3p2d1f pattern {62111/411/11/1}

Atom   0C    basis set group =>   1
Atom   1H    basis set group =>   2
Atom   2H    basis set group =>   2
Atom   3H    basis set group =>   2
Atom   4C    basis set group =>   1
Atom   5H    basis set group =>   2
Atom   6H    basis set group =>   2
Atom   7O    basis set group =>   3
Atom   8C    basis set group =>   1
Atom   9O    basis set group =>   3
Atom  10C    basis set group =>   1
Atom  11F    basis set group =>   4
Atom  12F    basis set group =>   4
Atom  13F    basis set group =>   4
---------------------------------
AUXILIARY/J BASIS SET INFORMATION
---------------------------------
There are 4 groups of distinct atoms

 Group   1 Type C   : 12s5p4d2f1g contracted to 6s4p3d1f1g pattern {711111/2111/211/2/1}
 Group   2 Type H   : 5s2p1d contracted to 3s1p1d pattern {311/2/1}
 Group   3 Type O   : 12s5p4d2f1g contracted to 6s4p3d1f1g pattern {711111/2111/211/2/1}
 Group   4 Type F   : 12s5p4d2f1g contracted to 6s4p3d1f1g pattern {711111/2111/211/2/1}

Atom   0C    basis set group =>   1
Atom   1H    basis set group =>   2
Atom   2H    basis set group =>   2
Atom   3H    basis set group =>   2
Atom   4C    basis set group =>   1
Atom   5H    basis set group =>   2
Atom   6H    basis set group =>   2
Atom   7O    basis set group =>   3
Atom   8C    basis set group =>   1
Atom   9O    basis set group =>   3
Atom  10C    basis set group =>   1
Atom  11F    basis set group =>   4
Atom  12F    basis set group =>   4
Atom  13F    basis set group =>   4
---------------------------------
AUXILIARY/C BASIS SET INFORMATION
---------------------------------
There are 4 groups of distinct atoms

 Group   1 Type C   : 8s6p5d3f1g contracted to 8s6p4d3f1g pattern {11111111/111111/2111/111/1}
 Group   2 Type H   : 4s3p2d1f contracted to 4s3p2d1f pattern {1111/111/11/1}
 Group   3 Type O   : 8s6p5d3f1g contracted to 8s6p4d3f1g pattern {11111111/111111/2111/111/1}
 Group   4 Type F   : 8s6p5d3f1g contracted to 8s6p4d3f1g pattern {11111111/111111/2111/111/1}

Atom   0C    basis set group =>   1
Atom   1H    basis set group =>   2
Atom   2H    basis set group =>   2
Atom   3H    basis set group =>   2
Atom   4C    basis set group =>   1
Atom   5H    basis set group =>   2
Atom   6H    basis set group =>   2
Atom   7O    basis set group =>   3
Atom   8C    basis set group =>   1
Atom   9O    basis set group =>   3
Atom  10C    basis set group =>   1
Atom  11F    basis set group =>   4
Atom  12F    basis set group =>   4
Atom  13F    basis set group =>   4

Checking for AutoStart:
The File: ip-eom.gbw exists
Trying to determine its content:
     ... Fine, the file contains calculation information
     ... Fine, the calculation information was read
     ... Fine, the file contains a basis set
     ... Fine, the basis set was read
     ... Fine, the file contains a geometry
     ... Fine, the geometry was read
     ... Fine, the file contains a set of orbitals
     ... Fine, the orbitals can be read
     => possible old guess file was deleted
     => GBW file was renamed to GES file
     => GES file is set as startup file
     => Guess is set to MORead
     ... now leaving AutoStart



           ************************************************************
           *        Program running with 16 parallel MPI-processes    *
           *              working on a common directory               *
           ************************************************************
------------------------------------------------------------------------------
                             ORCA STARTUP CALCULATIONS
------------------------------------------------------------------------------
------------------------------------------------------------------------------
                   ___                                                        
                  /   \      - P O W E R E D   B Y -                         
                 /     \                                                     
                 |  |  |   _    _      __       _____    __    __             
                 |  |  |  | |  | |    /  \     |  _  \  |  |  /  |          
                  \  \/   | |  | |   /    \    | | | |  |  | /  /          
                 / \  \   | |__| |  /  /\  \   | |_| |  |  |/  /          
                |  |  |   |  __  | /  /__\  \  |    /   |      \           
                |  |  |   | |  | | |   __   |  |    \   |  |\   \          
                \     /   | |  | | |  |  |  |  | |\  \  |  | \   \       
                 \___/    |_|  |_| |__|  |__|  |_| \__\ |__|  \__/        
                                                                              
                      - O R C A' S   B I G   F R I E N D -                    
                                      &                                       
                       - I N T E G R A L  F E E D E R -                       
                                                                              
 v1 FN, 2020, v2 2021, v3 2022-2024                                           
------------------------------------------------------------------------------


----------------------
SHARK INTEGRAL PACKAGE
----------------------

Number of atoms                             ...     14
Number of basis functions                   ...    349
Number of shells                            ...    129
Maximum angular momentum                    ...      3
Integral batch strategy                     ... SHARK/LIBINT Hybrid
RI-J (if used) integral strategy            ... SPLIT-RIJ (Revised 2003 algorithm where possible)
Printlevel                                  ...      1
Contraction scheme used                     ... SEGMENTED contraction
Prescreening option                         ... SCHWARTZ
   Thresh                                   ... 3.000e-16
   Tcut                                     ... 3.000e-18
   Tpresel                                  ... 3.000e-18 
Coulomb Range Separation                    ... NOT USED
Exchange Range Separation                   ... NOT USED
Multipole approximations                    ... NOT USED
Finite Nucleus Model                        ... NOT USED
CABS basis                                  ... NOT available
Auxiliary Coulomb fitting basis             ... AVAILABLE
   # of basis functions in Aux-J            ...    496
   # of shells in Aux-J                     ...    160
   Maximum angular momentum in Aux-J        ...      4
Auxiliary J/K fitting basis                 ... NOT available
Auxiliary Correlation fitting basis         ... AVAILABLE
   # of basis functions in Aux-C            ...    834
   # of shells in Aux-C                     ...    248
   Maximum angular momentum in Aux-C        ...      4
Auxiliary 'external' fitting basis          ... NOT available

Checking pre-screening integrals            ... done (  0.0 sec) Dimension = 129
Check shell pair data                       ... done (  0.0 sec)
Shell pair information
Shell pair cut-off parameter TPreSel        ...   3.0e-18
Total number of shell pairs                 ...      8385
Shell pairs after pre-screening             ...      7545
Total number of primitive shell pairs       ...     24523
Primitive shell pairs kept                  ...     16848
          la=0 lb=0:   1586 shell pairs
          la=1 lb=0:   2045 shell pairs
          la=1 lb=1:    673 shell pairs
          la=2 lb=0:   1198 shell pairs
          la=2 lb=1:    789 shell pairs
          la=2 lb=2:    242 shell pairs
          la=3 lb=0:    476 shell pairs
          la=3 lb=1:    308 shell pairs
          la=3 lb=2:    184 shell pairs
          la=3 lb=3:     44 shell pairs

Calculating one electron integrals          ... done (  0.0 sec)
Calculating RI/J V-Matrix + Cholesky decomp.... done (  0.0 sec)
Calculating RI/C V-Matrix + Cholesky decomp.... done (  0.0 sec)
Calculating Nuclear repulsion               ... done (  0.0 sec) ENN=    501.755175243768 Eh

Diagonalization of the overlap matrix:
Smallest eigenvalue                        ... 3.169e-04
Time for diagonalization                   ...    0.018 sec
Threshold for overlap eigenvalues          ... 1.000e-07
Number of eigenvalues below threshold      ... 0
Time for construction of square roots      ...    0.008 sec
Total time needed                          ...    0.027 sec

-------------------
DFT GRID GENERATION
-------------------

General Integration Accuracy     IntAcc      ... 4.388
Radial Grid Type                 RadialGrid  ... OptM3 with GC (2021)
Angular Grid (max. ang.)         AngularGrid ... 4 (Lebedev-302)
Angular grid pruning method      GridPruning ... 4 (adaptive)
Weight generation scheme         WeightScheme... mBecke (2022)
Basis function cutoff            BFCut       ... 3.0000e-16
Integration weight cutoff        WCut        ... 1.0000e-14
Partially contracted basis set               ... off
Rotationally invariant grid construction     ... off
Angular grids for H and He will be reduced by one unit

Total number of grid points                  ...    70815
Total number of batches                      ...     1114
Average number of points per batch           ...       63
Average number of grid points per atom       ...     5058
Initializing property integral containers    ... done (  0.0 sec)

SHARK setup successfully completed in   0.7 seconds

Maximum memory used throughout the entire STARTUP-calculation: 26.3 MB


           ************************************************************
           *        Program running with 16 parallel MPI-processes    *
           *              working on a common directory               *
           ************************************************************
-------------------------------------------------------------------------------
                                 ORCA GUESS
                   Start orbitals & Density for SCF / CASSCF
-------------------------------------------------------------------------------

------------
SCF SETTINGS
------------
Hamiltonian:
 Ab initio Hamiltonian  Method          .... Hartree-Fock(GTOs)


General Settings:
 Integral files         IntName         .... ip-eom
 Hartree-Fock type      HFTyp           .... RHF
 Total Charge           Charge          ....    0
 Multiplicity           Mult            ....    1
 Number of Electrons    NEL             ....   72
 Basis Dimension        Dim             ....  349
 Nuclear Repulsion      ENuc            ....    501.7551752438 Eh

Convergence Acceleration:
 AO-DIIS                CNVDIIS         .... on
   Start iteration      DIISMaxIt       ....    12
   Startup error        DIISStart       ....  0.200000
   # of expansion vecs  DIISMaxEq       ....     5
   Bias factor          DIISBfac        ....   1.050
   Max. coefficient     DIISMaxC        ....  10.000
 MO-DIIS                CNVKDIIS        .... off
 Trust-Rad. Augm. Hess. CNVTRAH         .... auto
   Auto Start mean grad. ratio tolernc. ....  1.125000
   Auto Start start iteration           ....     1
   Auto Start num. interpolation iter.  ....    10
   Max. Number of Micro iterations      ....    24
   Max. Number of Macro iterations      .... Maxiter - #DIIS iter
   Number of Davidson start vectors     ....     2
   Converg. threshold    (grad. norm)   ....   1.000e-09
   Grad. Scal. Fac. for Micro threshold ....   0.100
   Minimum threshold for Micro iter.    ....   1.000e-02
   NR start threshold (gradient norm)   ....   1.000e-04
   Initial trust radius                 ....   0.400
   Minimum AH scaling param. (alpha)    ....   1.000
   Maximum AH scaling param. (alpha)    .... 1000.000
   Quad. conv. algorithm                .... NR
   White noise on init. David. guess    .... on
   Maximum white noise                  ....   0.010
   Pseudo random numbers                .... off
   Inactive MOs                         .... canonical
   Orbital update algorithm             .... Taylor
   Preconditioner                       .... Diag
   Full preconditioner red. dimension   ....   250
 SOSCF                  CNVSOSCF        .... on
   Start iteration      SOSCFMaxIt      ....   150
   Startup grad/error   SOSCFStart      ....  0.003300
   Hessian update       SOSCFHessUp     .... L-BFGS
 Level Shifting         CNVShift        .... on
   Level shift para.    LevelShift      ....    0.2500
   Turn off err/grad.   ShiftErr        ....    0.0010
 Zerner damping         CNVZerner       .... off
 Static damping         CNVDamp         .... on
   Fraction old density DampFac         ....    0.7000
   Max. Damping (<1)    DampMax         ....    0.9800
   Min. Damping (>=0)   DampMin         ....    0.0000
   Turn off err/grad.   DampErr         ....    0.1000

SCF Procedure:
 Maximum # iterations   MaxIter         ....   125
 SCF integral mode      SCFMode         .... Direct
   Integral package                     .... SHARK and LIBINT hybrid scheme
 Reset frequency        DirectResetFreq ....    20
 Integral Threshold     Thresh          ....  3.000e-16 Eh
 Primitive CutOff       TCut            ....  3.000e-18 Eh

Convergence Tolerance:
 Convergence Check Mode ConvCheckMode   .... All-Criteria
 Convergence forced     ConvForced      .... 1
 Energy Change          TolE            ....  1.000e-14 Eh
 Max Density Change     TolMaxP         ....  1.000e-14
 RMS Density Change     TolRMSP         ....  1.000e-14
 Orbital Gradient       TolG            ....  1.000e-09
 Orbital Rotation angle TolX            ....  1.000e-09
 DIIS Error             TolErr          ....  1.000e-14

---------------------
INITIAL GUESS: MOREAD
---------------------
Guess MOs are being read from file: ip-eom.ges
Input Geometry matches current geometry (good)
Input basis set matches current basis set (good)
Occupation numbers will be reassigned to an Aufbau configuration
MOs were renormalized
MOs were reorthogonalized (Cholesky)
                      ------------------
                      INITIAL GUESS DONE (   0.0 sec)
                      ------------------
             **** ENERGY FILE WAS UPDATED (ip-eom.en.tmp) ****
Finished Guess after   0.3 sec
Maximum memory used throughout the entire GUESS-calculation: 19.2 MB


           ************************************************************
           *        Program running with 16 parallel MPI-processes    *
           *              working on a common directory               *
           ************************************************************

-------------------------------------------------------------------------------------------
                                      ORCA LEAN-SCF
                              memory conserving SCF solver
-------------------------------------------------------------------------------------------

----------------------------------------D-I-I-S--------------------------------------------
Iteration    Energy (Eh)           Delta-E    RMSDP     MaxDP     DIISErr   Damp  Time(sec)
-------------------------------------------------------------------------------------------
               ***  Starting incremental Fock matrix formation  ***
                              *** Initializing SOSCF ***
---------------------------------------S-O-S-C-F--------------------------------------
Iteration    Energy (Eh)           Delta-E    RMSDP     MaxDP     MaxGrad    Time(sec)
--------------------------------------------------------------------------------------
    1    -602.7000650386906955     0.00e+00  6.56e-10  2.08e-08  2.66e-10     3.2
               *** Restarting incremental Fock matrix formation ***
    2    -602.7000650386900134     6.82e-13  0.00e+00  0.00e+00  9.95e-10     3.2
                           ***RMSP convergence achieved***
                           ***MAXP convergence achieved***
                       ***Gradient convergence achieved***
                    ***Orbital Rotation convergence achieved***
    3    -602.7000650386900134     0.00e+00  0.00e+00  0.00e+00  9.95e-10     0.1
                          ***Energy convergence achieved***

               *****************************************************
               *                     SUCCESS                       *
               *           SCF CONVERGED AFTER   3 CYCLES          *
               *****************************************************

             **** ENERGY FILE WAS UPDATED (ip-eom.en.tmp) ****

----------------
TOTAL SCF ENERGY
----------------

Total Energy       :       -602.70006503869001 Eh          -16400.30254 eV

Components:
Nuclear Repulsion  :        501.75517524376812 Eh           13653.45245 eV
Electronic Energy  :      -1104.45524028245813 Eh          -30053.75499 eV
One Electron Energy:      -1829.96320805721302 Eh          -49795.83046 eV
Two Electron Energy:        725.50796777475489 Eh           19742.07547 eV

Virial components:
Potential Energy   :      -1204.84572350077269 Eh          -32785.51892 eV
Kinetic Energy     :        602.14565846208257 Eh           16385.21638 eV
Virial Ratio       :          2.00092071838237

---------------
SCF CONVERGENCE
---------------

  Last Energy change         ...    0.0000e+00  Tolerance :   1.0000e-14
  Last MAX-Density change    ...    0.0000e+00  Tolerance :   1.0000e-14
  Last RMS-Density change    ...    0.0000e+00  Tolerance :   1.0000e-14
  Last DIIS Error            ...    5.2511e-09  Tolerance :   1.0000e-14
  Last Orbital Gradient      ...    9.9545e-10  Tolerance :   1.0000e-09
  Last Orbital Rotation      ...    0.0000e+00  Tolerance :   1.0000e-09


----------------
ORBITAL ENERGIES
----------------

  NO   OCC          E(Eh)            E(eV) 
   0   2.0000     -26.352122      -717.0777 
   1   2.0000     -26.351870      -717.0708 
   2   2.0000     -26.349520      -717.0069 
   3   2.0000     -20.634693      -561.4986 
   4   2.0000     -20.583214      -560.0977 
   5   2.0000     -11.526163      -313.6429 
   6   2.0000     -11.418905      -310.7242 
   7   2.0000     -11.311854      -307.8112 
   8   2.0000     -11.239505      -305.8425 
   9   2.0000      -1.748122       -47.5688 
  10   2.0000      -1.650834       -44.9215 
  11   2.0000      -1.650400       -44.9097 
  12   2.0000      -1.503349       -40.9082 
  13   2.0000      -1.404395       -38.2155 
  14   2.0000      -1.080364       -29.3982 
  15   2.0000      -1.017645       -27.6915 
  16   2.0000      -0.915456       -24.9108 
  17   2.0000      -0.859905       -23.3992 
  18   2.0000      -0.841448       -22.8970 
  19   2.0000      -0.838026       -22.8038 
  20   2.0000      -0.802439       -21.8355 
  21   2.0000      -0.731307       -19.8999 
  22   2.0000      -0.726562       -19.7708 
  23   2.0000      -0.710331       -19.3291 
  24   2.0000      -0.706155       -19.2155 
  25   2.0000      -0.678444       -18.4614 
  26   2.0000      -0.678235       -18.4557 
  27   2.0000      -0.676547       -18.4098 
  28   2.0000      -0.662253       -18.0208 
  29   2.0000      -0.610959       -16.6250 
  30   2.0000      -0.591392       -16.0926 
  31   2.0000      -0.570033       -15.5114 
  32   2.0000      -0.537893       -14.6368 
  33   2.0000      -0.535569       -14.5736 
  34   2.0000      -0.489464       -13.3190 
  35   2.0000      -0.488259       -13.2862 
  36   0.0000       0.127750         3.4763 
  37   0.0000       0.134643         3.6638 
  38   0.0000       0.172617         4.6971 
  39   0.0000       0.197020         5.3612 
  40   0.0000       0.198305         5.3962 
  41   0.0000       0.218903         5.9567 
  42   0.0000       0.226982         6.1765 
  43   0.0000       0.246956         6.7200 
  44   0.0000       0.260585         7.0909 
  45   0.0000       0.284001         7.7281 
  46   0.0000       0.301154         8.1948 
*Only the first 10 virtual orbitals were printed.

                    ********************************
                    * MULLIKEN POPULATION ANALYSIS *
                    ********************************

-----------------------
MULLIKEN ATOMIC CHARGES
-----------------------
   0 C :   -0.156844
   1 H :    0.059174
   2 H :    0.068008
   3 H :    0.068217
   4 C :    0.116277
   5 H :    0.073826
   6 H :    0.072677
   7 O :   -0.341719
   8 C :    0.458002
   9 O :   -0.412863
  10 C :    0.672731
  11 F :   -0.229852
  12 F :   -0.216283
  13 F :   -0.231350
Sum of atomic charges:    0.0000000

--------------------------------
MULLIKEN REDUCED ORBITAL CHARGES
--------------------------------
  0 C s       :     3.092891  s :     3.092891
      pz      :     1.050406  p :     2.974931
      px      :     0.955524
      py      :     0.969002
      dz2     :     0.016059  d :     0.084918
      dxz     :     0.005271
      dyz     :     0.030008
      dx2y2   :     0.011379
      dxy     :     0.022201
      f0      :     0.000297  f :     0.004104
      f+1     :     0.000445
      f-1     :     0.000939
      f+2     :     0.000224
      f-2     :     0.000513
      f+3     :     0.000730
      f-3     :     0.000956

  1 H s       :     0.898811  s :     0.898811
      pz      :     0.007850  p :     0.039977
      px      :     0.021048
      py      :     0.011079
      dz2     :     0.000195  d :     0.002038
      dxz     :     0.000429
      dyz     :     0.000155
      dx2y2   :     0.000632
      dxy     :     0.000627

  2 H s       :     0.891304  s :     0.891304
      pz      :     0.017457  p :     0.038637
      px      :     0.007577
      py      :     0.013603
      dz2     :     0.000591  d :     0.002051
      dxz     :     0.000359
      dyz     :     0.000607
      dx2y2   :     0.000212
      dxy     :     0.000282

  3 H s       :     0.891049  s :     0.891049
      pz      :     0.018311  p :     0.038683
      px      :     0.007800
      py      :     0.012572
      dz2     :     0.000609  d :     0.002051
      dxz     :     0.000406
      dyz     :     0.000614
      dx2y2   :     0.000181
      dxy     :     0.000241

  4 C s       :     3.088135  s :     3.088135
      pz      :     1.060587  p :     2.631739
      px      :     0.667790
      py      :     0.903362
      dz2     :     0.018122  d :     0.152739
      dxz     :     0.022742
      dyz     :     0.048027
      dx2y2   :     0.032059
      dxy     :     0.031790
      f0      :     0.001310  f :     0.011110
      f+1     :     0.001230
      f-1     :     0.001190
      f+2     :     0.000732
      f-2     :     0.001627
      f+3     :     0.002563
      f-3     :     0.002459

  5 H s       :     0.887467  s :     0.887467
      pz      :     0.019493  p :     0.036375
      px      :     0.005221
      py      :     0.011660
      dz2     :     0.000697  d :     0.002332
      dxz     :     0.000437
      dyz     :     0.000654
      dx2y2   :     0.000196
      dxy     :     0.000348

  6 H s       :     0.888551  s :     0.888551
      pz      :     0.018478  p :     0.036439
      px      :     0.005155
      py      :     0.012806
      dz2     :     0.000672  d :     0.002333
      dxz     :     0.000388
      dyz     :     0.000656
      dx2y2   :     0.000224
      dxy     :     0.000393

  7 O s       :     3.767788  s :     3.767788
      pz      :     1.752624  p :     4.530220
      px      :     1.196442
      py      :     1.581153
      dz2     :     0.004943  d :     0.041383
      dxz     :     0.005332
      dyz     :     0.003985
      dx2y2   :     0.007030
      dxy     :     0.020093
      f0      :     0.000290  f :     0.002328
      f+1     :     0.000464
      f-1     :     0.000200
      f+2     :     0.000093
      f-2     :     0.000246
      f+3     :     0.000393
      f-3     :     0.000642

  8 C s       :     3.018134  s :     3.018134
      pz      :     0.671658  p :     2.197652
      px      :     0.773486
      py      :     0.752507
      dz2     :     0.009440  d :     0.298951
      dxz     :     0.025321
      dyz     :     0.076809
      dx2y2   :     0.052346
      dxy     :     0.135035
      f0      :     0.003318  f :     0.027262
      f+1     :     0.001527
      f-1     :     0.001766
      f+2     :     0.003383
      f-2     :     0.002629
      f+3     :     0.009992
      f-3     :     0.004646

  9 O s       :     3.837546  s :     3.837546
      pz      :     1.395620  p :     4.534968
      px      :     1.807078
      py      :     1.332270
      dz2     :     0.003418  d :     0.038042
      dxz     :     0.000103
      dyz     :     0.014189
      dx2y2   :     0.011953
      dxy     :     0.008379
      f0      :     0.000219  f :     0.002306
      f+1     :     0.000019
      f-1     :     0.000265
      f+2     :     0.000558
      f-2     :     0.000018
      f+3     :     0.000587
      f-3     :     0.000640

 10 C s       :     2.960814  s :     2.960814
      pz      :     0.568220  p :     1.984005
      px      :     0.752544
      py      :     0.663241
      dz2     :     0.077203  d :     0.339713
      dxz     :     0.071796
      dyz     :     0.064592
      dx2y2   :     0.060198
      dxy     :     0.065924
      f0      :     0.008134  f :     0.042738
      f+1     :     0.005432
      f-1     :     0.006367
      f+2     :     0.004805
      f-2     :     0.007963
      f+3     :     0.006254
      f-3     :     0.003783

 11 F s       :     3.918615  s :     3.918615
      pz      :     1.685711  p :     5.292876
      px      :     1.919410
      py      :     1.687754
      dz2     :     0.002948  d :     0.017543
      dxz     :     0.001608
      dyz     :     0.008452
      dx2y2   :     0.002838
      dxy     :     0.001697
      f0      :     0.000089  f :     0.000818
      f+1     :     0.000025
      f-1     :     0.000269
      f+2     :     0.000230
      f-2     :     0.000106
      f+3     :     0.000046
      f-3     :     0.000053

 12 F s       :     3.917263  s :     3.917263
      pz      :     1.900601  p :     5.279956
      px      :     1.595932
      py      :     1.783423
      dz2     :     0.002713  d :     0.018202
      dxz     :     0.002580
      dyz     :     0.001239
      dx2y2   :     0.004033
      dxy     :     0.007637
      f0      :     0.000073  f :     0.000863
      f+1     :     0.000119
      f-1     :     0.000061
      f+2     :     0.000029
      f-2     :     0.000120
      f+3     :     0.000168
      f-3     :     0.000293

 13 F s       :     3.918893  s :     3.918893
      pz      :     1.560941  p :     5.294180
      px      :     1.914834
      py      :     1.818406
      dz2     :     0.006634  d :     0.017465
      dxz     :     0.002524
      dyz     :     0.006517
      dx2y2   :     0.000941
      dxy     :     0.000850
      f0      :     0.000193  f :     0.000812
      f+1     :     0.000087
      f-1     :     0.000335
      f+2     :     0.000095
      f-2     :     0.000082
      f+3     :     0.000011
      f-3     :     0.000009



                     *******************************
                     * LOEWDIN POPULATION ANALYSIS *
                     *******************************

----------------------
LOEWDIN ATOMIC CHARGES
----------------------
   0 C :    0.020103
   1 H :    0.014105
   2 H :    0.012287
   3 H :    0.012242
   4 C :   -0.041275
   5 H :    0.014980
   6 H :    0.014886
   7 O :    0.261317
   8 C :   -0.394910
   9 O :    0.104944
  10 C :   -0.539388
  11 F :    0.166500
  12 F :    0.189738
  13 F :    0.164472

-------------------------------
LOEWDIN REDUCED ORBITAL CHARGES
-------------------------------
  0 C s       :     2.702422  s :     2.702422
      pz      :     1.006998  p :     2.943817
      px      :     0.964633
      py      :     0.972187
      dz2     :     0.054675  d :     0.303690
      dxz     :     0.019003
      dyz     :     0.102024
      dx2y2   :     0.049079
      dxy     :     0.078909
      f0      :     0.002327  f :     0.029967
      f+1     :     0.004532
      f-1     :     0.005329
      f+2     :     0.003772
      f-2     :     0.003751
      f+3     :     0.004206
      f-3     :     0.006050

  1 H s       :     0.813290  s :     0.813290
      pz      :     0.038826  p :     0.144425
      px      :     0.061844
      py      :     0.043755
      dz2     :     0.002311  d :     0.028180
      dxz     :     0.007064
      dyz     :     0.002683
      dx2y2   :     0.008298
      dxy     :     0.007824

  2 H s       :     0.815443  s :     0.815443
      pz      :     0.057878  p :     0.143995
      px      :     0.036575
      py      :     0.049541
      dz2     :     0.008658  d :     0.028275
      dxz     :     0.005308
      dyz     :     0.007351
      dx2y2   :     0.002809
      dxy     :     0.004149

  3 H s       :     0.815450  s :     0.815450
      pz      :     0.059797  p :     0.144029
      px      :     0.036813
      py      :     0.047419
      dz2     :     0.008944  d :     0.028279
      dxz     :     0.005761
      dyz     :     0.007615
      dx2y2   :     0.002409
      dxy     :     0.003551

  4 C s       :     2.709698  s :     2.709698
      pz      :     1.031501  p :     2.730256
      px      :     0.755910
      py      :     0.942844
      dz2     :     0.072008  d :     0.528545
      dxz     :     0.070900
      dyz     :     0.136682
      dx2y2   :     0.110222
      dxy     :     0.138733
      f0      :     0.007253  f :     0.072776
      f+1     :     0.008890
      f-1     :     0.006455
      f+2     :     0.006851
      f-2     :     0.009764
      f+3     :     0.016682
      f-3     :     0.016881

  5 H s       :     0.818497  s :     0.818497
      pz      :     0.064242  p :     0.138604
      px      :     0.026278
      py      :     0.048084
      dz2     :     0.009118  d :     0.027919
      dxz     :     0.004610
      dyz     :     0.008641
      dx2y2   :     0.002560
      dxy     :     0.002990

  6 H s       :     0.818870  s :     0.818870
      pz      :     0.061551  p :     0.138369
      px      :     0.025916
      py      :     0.050902
      dz2     :     0.009067  d :     0.027875
      dxz     :     0.003899
      dyz     :     0.008371
      dx2y2   :     0.003043
      dxy     :     0.003495

  7 O s       :     3.232383  s :     3.232383
      pz      :     1.591914  p :     4.397414
      px      :     1.250335
      py      :     1.555166
      dz2     :     0.010693  d :     0.102514
      dxz     :     0.015658
      dyz     :     0.007020
      dx2y2   :     0.028029
      dxy     :     0.041113
      f0      :     0.000522  f :     0.006373
      f+1     :     0.000824
      f-1     :     0.000286
      f+2     :     0.000112
      f-2     :     0.000991
      f+3     :     0.002164
      f-3     :     0.001474

  8 C s       :     2.744673  s :     2.744673
      pz      :     0.663529  p :     2.541739
      px      :     0.888312
      py      :     0.989898
      dz2     :     0.067422  d :     0.948525
      dxz     :     0.079181
      dyz     :     0.183580
      dx2y2   :     0.223115
      dxy     :     0.395227
      f0      :     0.011588  f :     0.159973
      f+1     :     0.008243
      f-1     :     0.012228
      f+2     :     0.020954
      f-2     :     0.015508
      f+3     :     0.065115
      f-3     :     0.026338

  9 O s       :     3.392471  s :     3.392471
      pz      :     1.305392  p :     4.427707
      px      :     1.627982
      py      :     1.494333
      dz2     :     0.008358  d :     0.068741
      dxz     :     0.000196
      dyz     :     0.015100
      dx2y2   :     0.027477
      dxy     :     0.017610
      f0      :     0.000403  f :     0.006137
      f+1     :     0.000107
      f-1     :     0.000971
      f+2     :     0.000808
      f-2     :     0.000074
      f+3     :     0.001828
      f-3     :     0.001946

 10 C s       :     2.737454  s :     2.737454
      pz      :     0.729976  p :     2.403821
      px      :     0.873280
      py      :     0.800565
      dz2     :     0.257051  d :     1.129237
      dxz     :     0.175378
      dyz     :     0.265601
      dx2y2   :     0.176323
      dxy     :     0.254885
      f0      :     0.046067  f :     0.268876
      f+1     :     0.034197
      f-1     :     0.045904
      f+2     :     0.036752
      f-2     :     0.044414
      f+3     :     0.035130
      f-3     :     0.026411

 11 F s       :     3.597357  s :     3.597357
      pz      :     1.685480  p :     5.204889
      px      :     1.834247
      py      :     1.685162
      dz2     :     0.004941  d :     0.029732
      dxz     :     0.002829
      dyz     :     0.013870
      dx2y2   :     0.004698
      dxy     :     0.003393
      f0      :     0.000203  f :     0.001521
      f+1     :     0.000048
      f-1     :     0.000437
      f+2     :     0.000377
      f-2     :     0.000248
      f+3     :     0.000120
      f-3     :     0.000088

 12 F s       :     3.587644  s :     3.587644
      pz      :     1.818061  p :     5.190307
      px      :     1.625069
      py      :     1.747178
      dz2     :     0.004468  d :     0.030706
      dxz     :     0.003765
      dyz     :     0.002207
      dx2y2   :     0.007763
      dxy     :     0.012504
      f0      :     0.000135  f :     0.001605
      f+1     :     0.000212
      f-1     :     0.000105
      f+2     :     0.000047
      f-2     :     0.000238
      f+3     :     0.000403
      f-3     :     0.000463

 13 F s       :     3.598426  s :     3.598426
      pz      :     1.606407  p :     5.205978
      px      :     1.830764
      py      :     1.768807
      dz2     :     0.010745  d :     0.029614
      dxz     :     0.004636
      dyz     :     0.011065
      dx2y2   :     0.001310
      dxy     :     0.001857
      f0      :     0.000386  f :     0.001510
      f+1     :     0.000180
      f-1     :     0.000530
      f+2     :     0.000160
      f-2     :     0.000207
      f+3     :     0.000032
      f-3     :     0.000014


------------------------------------------
LOEWDIN REDUCED ORBITAL POPULATIONS PER MO
-------------------------------------------
THRESHOLD FOR PRINTING IS 0.1%%
                      0         1         2         3         4         5   
                 -26.35212 -26.35187 -26.34952 -20.63469 -20.58321 -11.52616
                   2.00000   2.00000   2.00000   2.00000   2.00000   2.00000
                  --------  --------  --------  --------  --------  --------
 7 O  s               0.0       0.0       0.0      99.7       0.0       0.0
 8 C  dx2y2           0.0       0.0       0.0       0.0       0.1       0.0
 9 O  s               0.0       0.0       0.0       0.0      99.6       0.0
10 C  s               0.0       0.0       0.0       0.0       0.0      99.3
11 F  s               0.2      99.7       0.0       0.0       0.0       0.0
12 F  s               0.0       0.0      99.9       0.0       0.0       0.0
13 F  s              99.7       0.2       0.0       0.0       0.0       0.0

                      6         7         8         9        10        11   
                 -11.41891 -11.31185 -11.23951  -1.74812  -1.65083  -1.65040
                   2.00000   2.00000   2.00000   2.00000   2.00000   2.00000
                  --------  --------  --------  --------  --------  --------
 0 C  s               0.0       0.0      98.4       0.0       0.0       0.0
 0 C  dxy             0.0       0.1       0.0       0.0       0.0       0.0
 1 H  px              0.0       0.0       0.2       0.0       0.0       0.0
 2 H  pz              0.0       0.0       0.2       0.0       0.0       0.0
 2 H  py              0.0       0.0       0.1       0.0       0.0       0.0
 3 H  pz              0.0       0.0       0.2       0.0       0.0       0.0
 4 C  s               0.0      98.7       0.0       0.0       0.0       0.0
 4 C  dxy             0.0       0.0       0.1       0.0       0.0       0.0
 5 H  pz              0.0       0.2       0.0       0.0       0.0       0.0
 6 H  pz              0.0       0.2       0.0       0.0       0.0       0.0
 6 H  py              0.0       0.1       0.0       0.0       0.0       0.0
 8 C  s              98.9       0.0       0.0       1.1       0.0       0.0
 8 C  pz              0.0       0.0       0.0       0.0       0.0       0.3
 8 C  px              0.0       0.0       0.0       1.6       0.1       0.0
 8 C  py              0.0       0.0       0.0       0.8       0.3       0.0
 8 C  dz2             0.0       0.0       0.0       0.1       0.0       0.0
 8 C  dxz             0.0       0.0       0.0       0.0       0.0       0.1
 8 C  dx2y2           0.0       0.0       0.0       0.0       0.2       0.0
 8 C  dxy             0.0       0.0       0.0       0.2       0.0       0.0
 9 O  py              0.2       0.0       0.0       0.1       0.0       0.0
 9 O  dx2y2           0.2       0.0       0.0       0.0       0.0       0.0
10 C  s               0.0       0.0       0.0      17.5       0.0       0.0
10 C  pz              0.0       0.0       0.0       0.0       0.2      16.0
10 C  px              0.0       0.0       0.0       2.1       5.5       0.1
10 C  py              0.0       0.0       0.0       1.0      10.8       0.1
10 C  dz2             0.0       0.0       0.0       0.3       3.2       0.7
10 C  dxz             0.0       0.0       0.0       0.0       0.5       0.0
10 C  dyz             0.0       0.0       0.0       0.0       0.4       7.2
10 C  dx2y2           0.0       0.0       0.0       0.1       1.7       0.1
10 C  dxy             0.1       0.0       0.0       0.9       2.3       0.1
10 C  f0              0.0       0.0       0.0       0.2       0.0       0.0
10 C  f+1             0.0       0.0       0.0       0.0       0.2       0.0
10 C  f-1             0.0       0.0       0.0       1.1       0.2       0.0
10 C  f+2             0.0       0.0       0.0       0.0       0.1       0.6
10 C  f-2             0.0       0.0       0.0       0.1       0.0       0.0
10 C  f-3             0.0       0.0       0.0       0.5       0.3       0.0
11 F  s               0.0       0.0       0.0      22.1      15.5      33.7
11 F  pz              0.0       0.0       0.0       0.8       0.1       0.1
11 F  py              0.0       0.0       0.0       0.6       0.1       0.2
12 F  s               0.0       0.0       0.0      22.9      47.4       0.2
12 F  pz              0.0       0.0       0.0       0.0       0.0       0.2
12 F  px              0.0       0.0       0.0       0.8       0.2       0.0
12 F  py              0.0       0.0       0.0       0.7       0.1       0.0
13 F  s               0.0       0.0       0.0      21.9       9.9      39.5
13 F  pz              0.0       0.0       0.0       1.3       0.1       0.2
13 F  py              0.0       0.0       0.0       0.2       0.1       0.1

                     12        13        14        15        16        17   
                  -1.50335  -1.40440  -1.08036  -1.01765  -0.91546  -0.85991
                   2.00000   2.00000   2.00000   2.00000   2.00000   2.00000
                  --------  --------  --------  --------  --------  --------
 0 C  s               0.2       0.2      13.3       8.4       8.5       4.8
 0 C  px              0.6       0.4       1.3       0.1       1.1       1.8
 0 C  py              0.1       0.1       1.2       0.2       0.5       2.3
 0 C  dz2             0.0       0.0       0.2       0.0       0.1       0.2
 0 C  dxy             0.0       0.0       0.5       0.1       0.2       0.5
 1 H  s               0.0       0.0       3.1       2.6       4.0       2.6
 1 H  px              0.0       0.0       0.8       0.6       0.5       0.2
 1 H  py              0.0       0.0       0.1       0.1       0.3       0.3
 2 H  s               0.0       0.0       3.1       2.3       3.5       3.0
 2 H  pz              0.0       0.0       0.4       0.3       0.5       0.4
 2 H  py              0.0       0.0       0.4       0.2       0.2       0.1
 3 H  s               0.0       0.0       3.1       2.3       3.5       3.0
 3 H  pz              0.0       0.0       0.5       0.4       0.5       0.4
 3 H  py              0.0       0.0       0.3       0.2       0.2       0.1
 4 C  s               3.2       1.9      16.6       2.7       1.5       5.9
 4 C  px              4.3       1.3       1.4       3.3       4.1       0.4
 4 C  py              0.7       0.9       0.9       0.3       1.0       3.4
 4 C  dz2             0.6       0.3       0.1       0.0       0.1       0.5
 4 C  dx2y2           0.7       0.2       0.0       0.1       0.0       0.1
 4 C  dxy             0.8       0.7       0.3       0.7       1.0       0.2
 4 C  f-1             0.0       0.0       0.1       0.0       0.0       0.0
 4 C  f-3             0.2       0.2       0.1       0.0       0.0       0.0
 5 H  s               0.5       0.2       3.9       0.7       0.7       3.8
 5 H  pz              0.1       0.0       0.7       0.1       0.1       0.6
 5 H  px              0.0       0.0       0.0       0.0       0.1       0.0
 5 H  py              0.1       0.0       0.5       0.1       0.0       0.1
 6 H  s               0.5       0.2       3.9       0.7       0.7       3.9
 6 H  pz              0.0       0.0       0.6       0.1       0.2       0.6
 6 H  py              0.1       0.1       0.5       0.1       0.0       0.1
 7 O  s              32.3      18.8       0.1       1.2       0.2       0.8
 7 O  px              0.6       0.3      14.9       0.0      10.2       2.7
 7 O  py              1.9       0.2       0.2       0.1       0.2       0.9
 7 O  dz2             0.1       0.0       0.0       0.0       0.0       0.0
 7 O  dx2y2           0.0       0.1       0.0       0.2       0.1       0.1
 7 O  dxy             0.1       0.0       0.4       0.0       0.4       0.3
 8 C  s              18.5       2.5       3.7       1.6       3.0       0.5
 8 C  pz              0.0       0.2       0.0       0.0       0.0       0.0
 8 C  px              4.0       3.9       0.8       6.6       0.4       5.2
 8 C  py              0.4      21.3       5.2       2.2       2.4       0.2
 8 C  dz2             1.9       0.1       0.0       0.0       0.1       0.0
 8 C  dx2y2           0.2       4.3       0.0       0.2       0.1       0.9
 8 C  dxy             1.7       0.9       0.0       1.4       0.0       0.6
 8 C  f-1             0.0       0.4       0.1       0.0       0.0       0.0
 8 C  f-3             1.0       0.0       0.0       0.0       0.0       0.0
 9 O  s              15.8      35.7       1.1       0.7       0.6       0.9
 9 O  px              0.2       0.1       0.1       0.6       0.1       0.9
 9 O  py              3.1       2.4       0.6       0.5       0.8       1.0
 9 O  dx2y2           0.2       0.2       0.0       0.0       0.0       0.0
10 C  s               0.5       0.0       2.9      12.2       1.9       0.2
10 C  px              2.2       0.0       2.7       2.6       6.8       3.9
10 C  py              0.8       0.4       0.8       1.4       2.1       8.2
10 C  dz2             0.2       0.0       0.2       0.1       0.0       0.3
10 C  dx2y2           0.1       0.3       0.2       0.0       0.0       0.1
10 C  dxy             0.3       0.2       0.2       0.5       0.0       0.0
11 F  s               0.1       0.0       0.8       2.9       1.0       0.5
11 F  pz              0.0       0.0       0.6       4.2       4.8       7.8
11 F  px              0.0       0.0       0.2       0.1       3.6       3.4
11 F  py              0.0       0.0       1.1       5.8       1.6       0.0
11 F  dyz             0.0       0.0       0.0       0.2       0.1       0.0
12 F  s               0.1       0.1       0.5       3.2       1.6       0.0
12 F  pz              0.0       0.0       0.0       0.2       0.4       0.0
12 F  px              0.0       0.1       1.2       8.8       2.9       3.7
12 F  py              0.0       0.0       0.1       1.5       9.1       5.3
12 F  dxy             0.0       0.0       0.0       0.1       0.2       0.0
13 F  s               0.1       0.0       0.7       3.0       1.0       0.4
13 F  pz              0.0       0.0       0.9       6.6       7.8       7.9
13 F  px              0.0       0.0       0.4       0.6       1.8       1.7
13 F  py              0.0       0.0       0.6       2.9       0.3       1.0
13 F  dz2             0.0       0.0       0.0       0.1       0.1       0.1
13 F  dyz             0.0       0.0       0.0       0.1       0.0       0.0

                     18        19        20        21        22        23   
                  -0.84145  -0.83803  -0.80244  -0.73131  -0.72656  -0.71033
                   2.00000   2.00000   2.00000   2.00000   2.00000   2.00000
                  --------  --------  --------  --------  --------  --------
 0 C  s               0.0       0.6       0.0       0.0       0.0       0.0
 0 C  pz              0.0       0.0       0.0       0.9       0.0       0.1
 0 C  px              0.0       0.2       0.6       0.0       0.0       0.3
 0 C  py              0.0       0.7       1.3       0.0       0.1       0.9
 0 C  dx2y2           0.0       0.0       0.3       0.0       0.0       0.1
 0 C  dxy             0.0       0.1       0.0       0.0       0.0       0.0
 1 H  s               0.0       0.3       0.4       0.0       0.0       0.3
 2 H  s               0.0       0.5       0.1       0.1       0.0       0.2
 3 H  s               0.0       0.5       0.1       0.2       0.0       0.0
 4 C  s               0.0       1.4       1.4       0.0       0.0       0.3
 4 C  pz              0.0       0.0       0.0       4.7       0.0       0.3
 4 C  px              0.0       0.0       1.4       0.0       0.1       1.2
 4 C  py              0.0       1.5      10.0       0.0       0.3       3.4
 4 C  dz2             0.0       0.2       0.5       0.0       0.0       0.1
 4 C  dxz             0.0       0.0       0.0       0.2       0.0       0.0
 4 C  dx2y2           0.0       0.0       0.2       0.0       0.0       0.0
 4 C  dxy             0.0       0.0       1.3       0.0       0.0       0.1
 4 C  f+3             0.0       0.0       0.2       0.0       0.0       0.0
 5 H  s               0.0       1.2       3.4       1.3       0.1       0.6
 5 H  pz              0.0       0.2       0.5       0.0       0.0       0.1
 6 H  s               0.0       1.2       3.2       0.9       0.2       1.7
 6 H  pz              0.0       0.2       0.5       0.0       0.0       0.1
 7 O  s               0.0       0.5       4.4       0.0       0.0       0.0
 7 O  pz              0.3       0.0       0.2      11.2       0.0       0.3
 7 O  px              0.0       0.0      14.1       0.0       0.6       6.8
 7 O  py              0.0       0.3      18.2       0.1       0.2       0.2
 7 O  dz2             0.0       0.0       0.1       0.0       0.0       0.0
 7 O  dxy             0.0       0.0       0.4       0.0       0.0       0.0
 8 C  s               0.0       0.0       2.9       0.0       0.8       1.6
 8 C  pz              1.1       0.0       0.0       5.1       0.1       0.3
 8 C  px              0.0       0.0       6.8       0.0       0.4       1.2
 8 C  py              0.0       0.1       0.1       0.1       1.2       5.8
 8 C  dz2             0.0       0.0       0.3       0.0       0.0       0.4
 8 C  dxz             0.2       0.0       0.0       0.2       0.0       0.0
 8 C  dyz             0.1       0.0       0.0       0.1       0.0       0.0
 8 C  dx2y2           0.0       0.3       0.4       0.0       0.8       0.7
 8 C  dxy             0.0       0.4       0.4       0.0       0.1       0.1
 8 C  f0              0.1       0.0       0.0       0.1       0.0       0.0
 8 C  f+3             0.0       0.1       0.0       0.0       0.0       0.2
 9 O  s               0.0       0.0       2.7       0.0       3.0       7.8
 9 O  pz              0.3       0.0       0.1       2.1       0.0       0.0
 9 O  px              0.0       0.1       4.6       0.0       0.6       0.2
 9 O  py              0.0       0.0       4.9       0.1      11.5      36.0
 9 O  dz2             0.0       0.0       0.0       0.0       0.0       0.1
 9 O  dx2y2           0.0       0.0       0.1       0.0       0.1       0.4
 9 O  dxy             0.0       0.0       0.2       0.0       0.0       0.0
10 C  s               0.0       0.0       0.1       0.0       0.0       0.0
10 C  pz             16.1       0.1       0.0       0.3       0.0       0.1
10 C  px              0.0       6.9       1.2       0.0       0.1       0.7
10 C  py              0.1       7.4       0.2       0.0       0.5       0.5
10 C  dz2             0.2       0.6       0.0       0.3       3.5       0.5
10 C  dxz             0.4       0.1       0.0       6.3       0.0       0.1
10 C  dyz             0.8       0.1       0.0       0.1       0.6       0.1
10 C  dx2y2           0.0       0.2       0.5       0.0       3.1       0.1
10 C  dxy             0.1       0.3       0.4       0.2       0.0       1.0
10 C  f-2             0.0       0.0       0.0       0.2       0.0       0.0
10 C  f+3             0.0       0.1       0.0       0.0       0.2       0.2
11 F  s               2.0       0.8       0.0       0.1       0.0       0.0
11 F  pz              2.6      15.3       0.2       1.0       6.5       0.7
11 F  px              0.5       4.0       2.7      23.1       1.3       0.7
11 F  py             24.5       0.2       0.2       1.3      18.5       3.9
11 F  dyz             0.2       0.1       0.0       0.0       0.0       0.0
12 F  s               0.0       2.9       0.0       0.0       0.1       0.2
12 F  pz             15.8       1.5       0.1      13.9       0.0       0.1
12 F  px              0.7      21.5       0.5       0.1      11.8      12.4
12 F  py              0.6       7.9       4.0       0.4       6.2       0.5
12 F  dxy             0.0       0.2       0.0       0.0       0.0       0.0
13 F  s               2.5       0.4       0.0       0.1       0.0       0.0
13 F  pz             13.9       8.0       0.0       0.1       1.9       0.0
13 F  px              0.0       7.8       2.7      23.6       0.7       0.8
13 F  py             16.1       1.8       0.0       0.8      24.2       4.5
13 F  dyz             0.2       0.0       0.0       0.0       0.0       0.0

                     24        25        26        27        28        29   
                  -0.70615  -0.67844  -0.67823  -0.67655  -0.66225  -0.61096
                   2.00000   2.00000   2.00000   2.00000   2.00000   2.00000
                  --------  --------  --------  --------  --------  --------
 0 C  s               0.0       0.0       0.0       0.2       0.0       0.0
 0 C  pz              4.4       0.4       0.2       0.2       0.0      20.3
 0 C  px              0.0       0.0       0.1       1.3       0.0       0.1
 0 C  py              0.0       0.3       0.0       3.1       0.0       0.1
 0 C  dz2             0.0       0.0       0.0       0.1       0.0       0.0
 0 C  dxz             0.3       0.0       0.0       0.0       0.0       0.2
 0 C  dyz             0.0       0.0       0.0       0.0       0.0       0.4
 0 C  dxy             0.0       0.0       0.0       0.2       0.0       0.0
 1 H  s               0.0       0.0       0.0       0.2       0.0       0.0
 1 H  pz              0.1       0.0       0.0       0.0       0.0       0.7
 1 H  py              0.0       0.0       0.0       0.2       0.0       0.0
 1 H  dxz             0.0       0.0       0.0       0.0       0.0       0.1
 2 H  s               0.9       0.4       0.1       0.6       0.0       6.5
 2 H  pz              0.0       0.0       0.0       0.1       0.0       0.0
 2 H  py              0.1       0.0       0.0       0.0       0.0       0.4
 3 H  s               1.0       0.0       0.0       1.1       0.0       6.1
 3 H  py              0.1       0.0       0.0       0.0       0.0       0.4
 4 C  s               0.0       0.1       0.0       0.7       0.0       0.0
 4 C  pz             17.2       1.3       0.7       0.1       0.1       9.4
 4 C  px              0.1       0.3       0.0       4.1       0.0       0.0
 4 C  dz2             0.0       0.0       0.0       0.1       0.0       0.0
 4 C  dxz             0.3       0.0       0.0       0.0       0.0       1.4
 4 C  dyz             0.0       0.0       0.0       0.0       0.0       0.1
 4 C  dx2y2           0.0       0.0       0.0       0.4       0.0       0.0
 4 C  f-2             0.0       0.0       0.0       0.0       0.0       0.1
 5 H  s               4.5       0.1       0.2       0.9       0.0       2.9
 5 H  px              0.0       0.0       0.0       0.2       0.0       0.0
 5 H  py              0.3       0.0       0.0       0.0       0.0       0.2
 6 H  s               4.0       0.8       0.1       0.2       0.0       2.9
 6 H  px              0.0       0.0       0.0       0.2       0.0       0.0
 6 H  py              0.4       0.0       0.0       0.0       0.0       0.2
 7 O  s               0.0       0.1       0.0       0.6       0.0       0.0
 7 O  pz             21.2       0.5       0.3       0.1       0.0       8.9
 7 O  px              0.0       0.4       0.1       1.3       0.0       0.0
 7 O  py              0.0       0.7       0.3      14.3       0.0       0.1
 7 O  dxz             0.0       0.0       0.0       0.0       0.0       0.4
 7 O  dyz             0.1       0.0       0.0       0.0       0.0       0.0
 8 C  s               0.0       0.1       0.0       0.7       0.0       0.0
 8 C  pz              5.6       0.1       0.0       0.0       0.0      14.3
 8 C  px              0.1       0.5       0.1       6.1       0.0       0.1
 8 C  py              0.1       0.6       0.5       1.6       0.0       0.0
 8 C  dxz             1.0       0.1       0.0       0.0       0.0       0.3
 8 C  dyz             0.0       0.0       0.0       0.0       0.0       0.5
 8 C  dx2y2           0.0       0.0       0.0       0.6       0.0       0.0
 8 C  dxy             0.0       0.2       0.0       1.2       0.0       0.0
 8 C  f0              0.1       0.0       0.0       0.0       0.0       0.2
 8 C  f+2             0.0       0.0       0.0       0.0       0.0       0.1
 8 C  f-2             0.2       0.0       0.0       0.0       0.0       0.1
 9 O  s               0.1       0.1       0.1       0.1       0.0       0.0
 9 O  pz              3.3       0.0       0.0       0.1       0.0      17.2
 9 O  px              0.1       1.3       0.1       8.4       0.0       0.1
 9 O  py              0.4       0.6       1.2       0.0       0.0       0.1
 9 O  dyz             0.1       0.0       0.0       0.0       0.0       0.3
 9 O  dxy             0.0       0.0       0.0       0.2       0.0       0.0
10 C  s               0.0       0.0       0.0       0.4       0.0       0.0
10 C  pz              1.4       1.5       0.5       0.1       0.0       0.2
10 C  px              0.0       0.4       0.5       0.6       0.0       0.0
10 C  py              0.0       0.2       1.0       0.5       0.0       0.0
10 C  dz2             0.2       0.3       0.2       1.4       0.0       0.0
10 C  dxz             0.9       0.2       0.0       0.0       0.0       0.1
10 C  dyz             1.0       1.2       1.3       0.2       0.0       0.1
10 C  dx2y2           0.0       0.0       0.9       0.7       0.0       0.0
10 C  dxy             0.0       1.3       0.3       2.4       0.0       0.0
10 C  f0              0.1       0.2       0.1       0.0       1.4       0.1
10 C  f+1             0.0       0.6       0.2       0.1       0.3       0.0
10 C  f-1             0.0       0.1       0.0       0.1       0.5       0.0
10 C  f+2             0.1       0.1       0.7       0.0       0.1       0.0
10 C  f-2             0.0       0.3       0.3       0.2       0.9       0.2
10 C  f+3             0.0       0.2       0.6       0.2       0.0       0.0
10 C  f-3             0.0       0.1       0.0       0.1       0.0       0.0
11 F  s               0.1       0.1       0.2       0.0       0.0       0.0
11 F  pz              3.6      15.4       7.9       1.0      11.4       0.0
11 F  px              3.7       1.0      28.0       8.7       7.3       0.8
11 F  py              1.4       2.9       1.1       5.3      11.9       0.3
12 F  s               0.0       0.1       0.1       0.0       0.0       0.0
12 F  pz              9.3      11.2       2.5       0.8      34.4       0.3
12 F  px              0.4       0.1       0.1      10.0       0.4       0.0
12 F  py              0.1       7.5      29.7      10.3       0.7       0.0
13 F  s               0.1       0.1       0.0       0.1       0.0       0.0
13 F  pz              3.1      18.4       4.6       2.4       2.6       0.0
13 F  px              7.0      25.5       2.9       2.1       9.7       1.1
13 F  py              0.4       1.2      11.2       1.2      18.1       0.6

                     30        31        32        33        34        35   
                  -0.59139  -0.57003  -0.53789  -0.53557  -0.48946  -0.48826
                   2.00000   2.00000   2.00000   2.00000   2.00000   2.00000
                  --------  --------  --------  --------  --------  --------
 0 C  s               0.0       0.1       0.4       0.0       0.0       0.0
 0 C  pz              0.1       0.0       0.4      20.6       0.4       2.2
 0 C  px              0.6      35.9       2.4       0.0       1.0       0.3
 0 C  py             14.4       3.2      19.6       0.5       0.1       0.0
 0 C  dz2             0.7       0.4       0.7       0.1       0.0       0.0
 0 C  dxz             0.0       0.0       0.0       0.1       0.0       0.1
 0 C  dyz             0.0       0.0       0.1       3.1       0.2       1.2
 0 C  dx2y2           0.1       0.8       0.7       0.0       0.2       0.0
 0 C  dxy             0.0       1.8       0.2       0.0       0.1       0.0
 0 C  f+1             0.0       0.1       0.0       0.0       0.0       0.0
 0 C  f-3             0.0       0.0       0.1       0.0       0.0       0.0
 1 H  s               2.9      22.5       0.6       0.0       0.9       0.2
 1 H  pz              0.0       0.0       0.0       0.9       0.0       0.1
 1 H  px              0.2       0.2       0.3       0.0       0.0       0.0
 1 H  py              0.3       0.2       0.6       0.0       0.0       0.0
 1 H  dxz             0.0       0.0       0.0       0.2       0.0       0.0
 1 H  dx2y2           0.1       0.0       0.2       0.0       0.0       0.0
 1 H  dxy             0.0       0.1       0.1       0.0       0.0       0.0
 2 H  s               2.9       1.0       6.5       7.1       0.6       1.3
 2 H  pz              0.3       0.1       0.2       0.1       0.0       0.0
 2 H  px              0.0       1.5       0.1       0.0       0.0       0.0
 2 H  py              0.2       0.0       0.3       0.4       0.0       0.0
 2 H  dz2             0.1       0.0       0.1       0.0       0.0       0.0
 2 H  dxz             0.0       0.2       0.0       0.0       0.0       0.0
 2 H  dxy             0.0       0.2       0.0       0.0       0.0       0.0
 3 H  s               3.4       1.0       1.9      11.4       0.1       1.8
 3 H  pz              0.3       0.1       0.2       0.1       0.0       0.0
 3 H  px              0.0       1.4       0.1       0.0       0.0       0.0
 3 H  py              0.1       0.0       0.6       0.2       0.0       0.0
 3 H  dz2             0.1       0.1       0.1       0.0       0.0       0.0
 3 H  dxz             0.0       0.2       0.0       0.0       0.0       0.0
 3 H  dxy             0.0       0.1       0.0       0.0       0.0       0.0
 4 C  s               0.0       0.3       0.5       0.0       0.1       0.0
 4 C  pz              0.0       0.0       0.1       7.5       1.6       8.5
 4 C  px              7.3       5.3       2.1       0.0       0.6       0.3
 4 C  py              0.0       3.3      20.5       0.7       0.1       0.0
 4 C  dz2             0.0       0.0       0.9       0.1       0.0       0.0
 4 C  dxz             0.0       0.0       0.1       0.8       0.1       0.5
 4 C  dyz             0.0       0.0       0.1       1.7       0.8       4.1
 4 C  dx2y2           0.1       1.5       2.0       0.1       0.0       0.0
 4 C  dxy             0.1       0.9       0.5       0.1       0.1       0.0
 4 C  f0              0.0       0.0       0.0       0.0       0.0       0.2
 4 C  f+2             0.0       0.0       0.0       0.0       0.0       0.2
 4 C  f-2             0.0       0.0       0.0       0.2       0.0       0.0
[...]
Building the sigma vectors for doubles     ... 
CVS(rootid=4): i_c=8->x, j->a	(orbid=8, degenracy=4)
done (    0.1)
Building the Hamiltonian                   ... done (    0.0)
Diagonalize the Hamiltonian & root homing  ... done (    0.0)
Calculate Ritz vectors                     ... done (    0.0)
Calculate residuals                        ... done (    0.0)
Preconditioning and dimension check        ... done (    0.0)
Orthogonalization                          ... done (    0.0)
               Exc. Energy      Delta-E          Residual
IROOT=  4:  11.241732843444  11.241732843444   0.933654706941
Max. Delta-E:   11.241732843444
Max. Residual:   0.933654706941

                         ----------------------------
                         !        ITERATION    1    !
                         ----------------------------

Building the sigma vectors for singles     ... 
CVS(rootid=4): i_c=8->x, j->a	(orbid=8, degenracy=4)
done (    0.0)
Building the sigma vectors for doubles     ... 
CVS(rootid=4): i_c=8->x, j->a	(orbid=8, degenracy=4)
done (    0.1)
Building the Hamiltonian                   ... done (    0.0)
Diagonalize the Hamiltonian & root homing  ... done (    0.0)
Calculate Ritz vectors                     ... done (    0.0)
Calculate residuals                        ... done (    0.0)
Preconditioning and dimension check        ... done (    0.0)
Orthogonalization                          ... done (    0.0)
               Exc. Energy      Delta-E          Residual
IROOT=  4:  10.795244050851  -0.446488792593   0.038157270293
Max. Delta-E:    0.446488792593
Max. Residual:   0.038157270293

                         ----------------------------
                         !        ITERATION    2    !
                         ----------------------------

Building the sigma vectors for singles     ... 
CVS(rootid=4): i_c=8->x, j->a	(orbid=8, degenracy=4)
done (    0.0)
Building the sigma vectors for doubles     ... 
CVS(rootid=4): i_c=8->x, j->a	(orbid=8, degenracy=4)
done (    0.1)
Building the Hamiltonian                   ... done (    0.0)
Diagonalize the Hamiltonian & root homing  ... done (    0.0)
Calculate Ritz vectors                     ... done (    0.0)
Calculate residuals                        ... done (    0.0)
Preconditioning and dimension check        ... done (    0.0)
Orthogonalization                          ... done (    0.0)
               Exc. Energy      Delta-E          Residual
IROOT=  4:  10.778392330149  -0.016851720702   0.002486744472
Max. Delta-E:    0.016851720702
Max. Residual:   0.002486744472

                         ----------------------------
                         !        ITERATION    3    !
                         ----------------------------

Building the sigma vectors for singles     ... 
CVS(rootid=4): i_c=8->x, j->a	(orbid=8, degenracy=4)
done (    0.0)
Building the sigma vectors for doubles     ... 
CVS(rootid=4): i_c=8->x, j->a	(orbid=8, degenracy=4)
done (    0.1)
Building the Hamiltonian                   ... done (    0.0)
Diagonalize the Hamiltonian & root homing  ... done (    0.0)
Calculate Ritz vectors                     ... done (    0.0)
Calculate residuals                        ... done (    0.0)
Preconditioning and dimension check        ... done (    0.0)
Orthogonalization                          ... done (    0.1)
               Exc. Energy      Delta-E          Residual
IROOT=  4:  10.777477721949  -0.000914608200   0.000132048622
Max. Delta-E:    0.000914608200
Max. Residual:   0.000132048622

                         ----------------------------
                         !        ITERATION    4    !
                         ----------------------------

Building the sigma vectors for singles     ... 
CVS(rootid=4): i_c=8->x, j->a	(orbid=8, degenracy=4)
done (    0.0)
Building the sigma vectors for doubles     ... 
CVS(rootid=4): i_c=8->x, j->a	(orbid=8, degenracy=4)
done (    0.1)
Building the Hamiltonian                   ... done (    0.0)
Diagonalize the Hamiltonian & root homing  ... done (    0.0)
Calculate Ritz vectors                     ... done (    0.0)
Calculate residuals                        ... done (    0.0)
Preconditioning and dimension check        ... done (    0.0)
Orthogonalization                          ... done (    0.1)
               Exc. Energy      Delta-E          Residual
IROOT=  4:  10.777463343188  -0.000014378761   0.000010522652
Max. Delta-E:    0.000014378761
Max. Residual:   0.000010522652

                         ----------------------------
                         !        ITERATION    5    !
                         ----------------------------

Building the sigma vectors for singles     ... 
CVS(rootid=4): i_c=8->x, j->a	(orbid=8, degenracy=4)
done (    0.0)
Building the sigma vectors for doubles     ... 
CVS(rootid=4): i_c=8->x, j->a	(orbid=8, degenracy=4)
done (    0.1)
Building the Hamiltonian                   ... done (    0.0)
Diagonalize the Hamiltonian & root homing  ... done (    0.0)
Calculate Ritz vectors                     ... done (    0.0)
Calculate residuals                        ... done (    0.0)
Preconditioning and dimension check        ... done (    0.0)
Orthogonalization                          ... done (    0.1)
               Exc. Energy      Delta-E          Residual
IROOT=  4:  10.777471571537   0.000008228349   0.000000477573
Max. Delta-E:    0.000008228349
Max. Residual:   0.000000477573

                         ----------------------------
                         !        ITERATION    6    !
                         ----------------------------

Building the sigma vectors for singles     ... 
CVS(rootid=4): i_c=8->x, j->a	(orbid=8, degenracy=4)
done (    0.0)
Building the sigma vectors for doubles     ... 
CVS(rootid=4): i_c=8->x, j->a	(orbid=8, degenracy=4)
done (    0.1)
Building the Hamiltonian                   ... done (    0.0)
Diagonalize the Hamiltonian & root homing  ... done (    0.0)
Calculate Ritz vectors                     ... done (    0.0)
Calculate residuals                        ... done (    0.0)
               Exc. Energy      Delta-E          Residual
IROOT=  4:  10.777476669118   0.000005097580   0.000000015269 Converged
Max. Delta-E:    0.000005097580
Max. Residual:   0.000000015269

      *** CONVERGENCE OF RESIDUAL NORM REACHED ***
        --- The EOM iterations have converged ---

----------------------
EOM-CCSD RESULTS (RHS)
----------------------

IROOT=  1: 11.071691 au   301.276 eV 2429955.4 cm**-1
  Amplitude    Excitation
   0.675020     5 -> x
Percentage singles character=    101.13

IROOT=  2: 10.978268 au   298.734 eV 2409451.4 cm**-1
  Amplitude    Excitation
  -0.676977     6 -> x
Percentage singles character=    101.04

IROOT=  3: 10.848096 au   295.192 eV 2380881.8 cm**-1
  Amplitude    Excitation
  -0.674671     7 -> x
Percentage singles character=    101.14

IROOT=  4: 10.777477 au   293.270 eV 2365382.7 cm**-1
  Amplitude    Excitation
  -0.675095     8 -> x
Percentage singles character=    101.15




--------------------------------------------------------------------------------
                                    TIMINGS
--------------------------------------------------------------------------------


Total execution time                   ...      275.439 sec

Localization of occupied MO's          ...        0.212 sec (  0.1%)
Fock Matrix Formation                  ...        4.300 sec (  1.6%)
Global overlap, Fock, MKN matrices     ...        0.225 sec (  0.1%)
Differential overlap integrals         ...        0.473 sec (  0.2%)
Organizing maps                        ...        0.018 sec (  0.0%)
RI 3-index integral generations        ...        1.832 sec (  0.7%)
RI-PNO integral transformation         ...       67.719 sec ( 24.6%)
Initial Guess                          ...       15.973 sec (  5.8%)
DIIS Solver                            ...        3.361 sec (  1.2%)
State Vector Update                    ...        0.065 sec (  0.0%)
Sigma-vector construction              ...      169.792 sec ( 61.6%)
  <0|H|D>                              ...        0.001 sec (  0.0% of sigma)
  <D|H|D>(0-ext)                       ...        9.820 sec (  5.8% of sigma)
  <D|H|D>(2-ext Fock)                  ...        0.025 sec (  0.0% of sigma)
  <D|H|D>(2-ext)                       ...       26.549 sec ( 15.6% of sigma)
  <D|H|D>(4-ext)                       ...       11.381 sec (  6.7% of sigma)
  <D|H|D>(4-ext-corr)                  ...       73.206 sec ( 43.1% of sigma)
  CCSD doubles correction              ...        0.779 sec (  0.5% of sigma)
  <S|H|S>                              ...        0.617 sec (  0.4% of sigma)
  <S|H|D>(1-ext)                       ...        1.137 sec (  0.7% of sigma)
  <D|H|S>(1-ext)                       ...        0.031 sec (  0.0% of sigma)
  <S|H|D>(3-ext)                       ...        0.411 sec (  0.2% of sigma)
  Fock-dressing                        ...       22.731 sec ( 13.4% of sigma)
  Singles amplitudes                   ...        3.418 sec (  2.0% of sigma)
  (ik|jl)-dressing                     ...        7.697 sec (  4.5% of sigma)
  (ij|ab),(ia|jb)-dressing             ...        6.137 sec (  3.6% of sigma)
  Pair energies                        ...        0.017 sec (  0.0% of sigma)
Total Time for computing EOM-CCSD      ...       11.598 sec (  4.2% of ALL)
  Dressing integrals                   ...        2.991 sec ( 25.8% of (EOM))
  EOM Singles                          ...        0.086 sec (  0.7% of (EOM))
  EOM Doubles                          ...        4.311 sec ( 37.2% of (EOM))
  Build Hamiltonian                    ...        0.120 sec (  1.0% of (EOM))
  Diagonalize Hamiltonian              ...        0.030 sec (  0.3% of (EOM))
  Ritz vectors                         ...        0.932 sec (  8.0% of (EOM))
  Residual vectors                     ...        1.105 sec (  9.5% of (EOM))
  Orthogonalization                    ...        1.942 sec ( 16.7% of (EOM))
One-particle density matrix            ...        0.325 sec (  0.1%)


Maximum memory used throughout the entire MDCI-calculation: 3996.4 MB

-------------------------   --------------------
FINAL SINGLE POINT ENERGY      -593.680914843151
-------------------------   --------------------



           ************************************************************
           *        Program running with 16 parallel MPI-processes    *
           *              working on a common directory               *
           ************************************************************

------------------------------------------------------------------------------
                              ORCA PROPERTY CALCULATIONS
------------------------------------------------------------------------------

GBWName                                 ... ip-eom.gbw
Number of atoms                         ...     14
Number of basis functions               ...    349
Max core memory                         ...   4000 MB

Electric properties:
Dipole moment                           ... YES
Quadrupole moment                       ...  NO
Static polarizability (Dipole/Dipole)   ...  NO
Static polarizability (Dipole/Quad.)    ...  NO
Static polarizability (Quad./Quad.)     ...  NO
Static polarizability (Velocity)        ...  NO

Atomic electric properties:
Dipole moment                           ...  NO
Quadrupole moment                       ...  NO
Static polarizability                   ...  NO

Choice of electric origin               ... Center of mass
Position of electric origin             ...    -1.473610     2.169321     0.083978

General magnetic properties:
Magnetizability                         ...  NO

EPR properties:
g-Tensor (aka g-matrix)                 ...  NO
Zero-Field splitting spin-orbit         ...  NO
Zero-field splitting spin-spin          ...  NO
Hyperfine couplings                     ...  NO (   0 nuclei)
Quadrupole couplings                    ...  NO (   0 nuclei)
Contact density                         ...  NO (   0 nuclei)

NMR properties:
Chemical shifts                         ...  NO (   0 nuclei)
Spin-rotation constants                 ...  NO (   0 nuclei)
Spin-spin couplings                     ...  NO (   0 nuclei,    0 pairs)

Choice of magnetic origin               ... GIAO
Position of magnetic origin             ...     0.000000     0.000000     0.000000

Properties with geometric perturbations:
SCF Hessian                             ...  NO
IR spectrum                             ...  NO
VCD spectrum                            ...  NO
X-ray spectroscopy properties:
SCF XES/XAS/RIXS spectra                ...  NO


-------------
DIPOLE MOMENT
-------------

Method             : SCF
Type of density    : Electron Density
Multiplicity       :   1
Irrep              :   0
Energy             :  -602.7000650386900134 Eh
Relativity type    : 
Basis              : AO
                                X                 Y                 Z
Electronic contribution:    -18.255088788      -2.091812453       0.783348906
Nuclear contribution   :     19.573122213       1.861246739      -0.859319080
                        -----------------------------------------
Total Dipole Moment    :      1.318033424      -0.230565713      -0.075970175
                        -----------------------------------------
Magnitude (a.u.)       :      1.340203016
Magnitude (Debye)      :      3.406525345



--------------------
Rotational spectrum 
--------------------
 
Rotational constants in cm-1:             0.103599             0.032596             0.028834 
Rotational constants in MHz :          3105.823699           977.195472           864.408930 

Dipole components along the rotational axes: 
x,y,z [a.u.] :     1.297790    -0.334471    -0.003834 
x,y,z [Debye]:     3.298720    -0.850158    -0.009744 

 

-------------
DIPOLE MOMENT
-------------

Method             : MDCI(SD)
Type of density    : Electron Density
Multiplicity       :   1
Level              : Linearized density
Irrep              :   0
Energy             :     0.0000000000000000 Eh
Relativity type    : 
Basis              : AO
                                X                 Y                 Z
Electronic contribution:    -18.311301512      -2.027667544       0.788826193
Nuclear contribution   :     19.573122213       1.861246739      -0.859319080
                        -----------------------------------------
Total Dipole Moment    :      1.261820700      -0.166420804      -0.070492887
                        -----------------------------------------
Magnitude (a.u.)       :      1.274698635
Magnitude (Debye)      :      3.240026442



--------------------
Rotational spectrum 
--------------------
 
Rotational constants in cm-1:             0.103599             0.032596             0.028834 
Rotational constants in MHz :          3105.823699           977.195472           864.408930 

Dipole components along the rotational axes: 
x,y,z [a.u.] :     1.246629    -0.266020    -0.002628 
x,y,z [Debye]:     3.168678    -0.676170    -0.006679 

 

Dipole moment calculation done in   0.0 sec 

Maximum memory used throughout the entire PROP-calculation: 17.8 MB

--------------------------------
SUGGESTED CITATIONS FOR THIS RUN
--------------------------------

Below you find a list of papers that are relevant to this ORCA run
We neither can nor want to force you to cite these papers, but we appreciate if you do
You receive ORCA, which is the product of decades of hard work by many enthusiastic individuals, for free
The only thing we kindly ask in return is that you cite our papers,
We deeply appreciate it, if you show your appreciation for ORCA by not just citing the generic ORCA reference.

Please note that relegating all ORCA citations to the supporting information does *not* help us.
SI sections are not indexed - citations you put there will not count into any citation statistics
But we need these citations in order to attract the funding resources that allow us to do what we are doing

Therefore, if you are a happy ORCA user, please consider citing a few of the papers listed below in the main body of your paper

In addition to the list printed below, the program has created the file ip-eom.bibtex that contains the list in bibtex format
You can import this file easily into all common literature databanks and citation aid programs


List of essential papers. We consider these as the minimum necessary citations

  1. Neese,F.
     Software update: the ORCA program system, version 5.0
     WIRES Comput. Molec. Sci., 2022 12(1)e1606
     doi.org/10.1002/wcms.1606

List of papers to cite with high priority. The work reported in these papers was absolutely
necessary for this run to complete.
Our perspective: the developers of density functionals and basis sets usually get cited in chemistry papers
Good! But without the algorithms to do something with them, the functionals or basis sets would not do anything.
Hence, in our opinion, the algorithm design and method developments papers are equally worthy of getting cited

  1. Neese,F.; Hansen,A.; Liakos,D.G.
     Efficient and accurate approximations to the local coupled cluster singles doubles method using a truncated pair natural orbital basis
     J. Chem. Phys., 2009 131 064103
     doi.org/10.1063/1.3173827
  2. Neese,F.; Wennmohs,F.; Hansen,A.
     Efficient and accurate local approximations to coupled-electron pair approaches: An attempt to revive the pair natural orbital method
     J. Chem. Phys., 2009 130 114108
     doi.org/10.1063/1.3086717
  3. Riplinger,C.; Neese,F.
     An efficient and near linear scaling pair natural orbital based local coupled cluster method
     J. Chem. Phys., 2013 138(3)Art. No. 034106
     doi.org/10.1063/1.4773581
  4. Datta,D.; Kossmann,S.; Neese,F.
     Analytic energy derivatives for the calculation of the first-order molecular properties using the domain-based local pair-natural orbital coupled-cluster theory
     J. Chem. Phys., 2016 145 
     doi.org/10.1063/1.4962369
  5. Riplinger,C.; Pinski,P.; Becker,U.; Valeev,E.F.; Neese,F.
     Sparse maps-A systematic infrastructure for reduced-scaling electronic structure methods. II. Linear scaling domain based pair natural orbital coupled cluster theory
     J. Chem. Phys., 2016 144 
     doi.org/10.1063/1.4939030
  6. Neese,F.
     The SHARK Integral Generation and Digestion System
     J. Comp. Chem., 2022  1-16
     doi.org/10.1002/jcc.26942

List of suggested additional citations. These are papers that are important in the 'surrounding' of 
of this run, or papers that preceded the highly important papers. If you like your results we are grateful for a citation.

  1. Neese,F.
     The ORCA program system
     WIRES Comput. Molec. Sci., 2012 2(1)73-78
     doi.org/10.1002/wcms.81
  2. Neese,F.
     Software update: the ORCA program system, version 4.0
     WIRES Comput. Molec. Sci., 2018 8(1)1-6
     doi.org/10.1002/wcms.1327
  3. Neese,F.; Wennmohs,F.; Becker,U.; Riplinger,C.
     The ORCA quantum chemistry program package
     J. Chem. Phys., 2020 152 Art. No. L224108
     doi.org/10.1063/5.0004608

List of optional additional citations

  1. Neese,F.
     Approximate second-order SCF convergence for spin unrestricted wavefunctions
     Chem. Phys. Lett., 2000 325(1-3)93-98
     doi.org/10.1016/s0009-2614(00)00662-x

Timings for individual modules:

Sum of individual times          ...      286.301 sec (=   4.772 min)
Startup calculation              ...        1.047 sec (=   0.017 min)   0.4 %
SCF iterations                   ...        7.780 sec (=   0.130 min)   2.7 %
Property integrals               ...        0.543 sec (=   0.009 min)   0.2 %
Property calculations            ...        0.444 sec (=   0.007 min)   0.2 %
MDCI module                      ...      276.489 sec (=   4.608 min)  96.6 %
                             ****ORCA TERMINATED NORMALLY****
TOTAL RUN TIME: 0 days 0 hours 4 minutes 46 seconds 848 msec
