
                                 *****************
                                 * O   R   C   A *
                                 *****************

                                            #,                                       
                                            ###                                      
                                            ####                                     
                                            #####                                    
                                            ######                                   
                                           ########,                                 
                                     ,,################,,,,,                         
                               ,,#################################,,                 
                          ,,##########################################,,             
                       ,#########################################, ''#####,          
                    ,#############################################,,   '####,        
                  ,##################################################,,,,####,       
                ,###########''''           ''''###############################       
              ,#####''   ,,,,##########,,,,          '''####'''          '####       
            ,##' ,,,,###########################,,,                        '##       
           ' ,,###''''                  '''############,,,                           
         ,,##''                                '''############,,,,        ,,,,,,###''
      ,#''                                            '''#######################'''  
     '                                                          ''''####''''         
             ,#######,   #######,   ,#######,      ##                                
            ,#'     '#,  ##    ##  ,#'     '#,    #''#        ,####,   ,####,        
            ##       ##  ##   ,#'  ##            #'  '#       #'       #'  '#        
            ##       ##  #######   ##           ,######,      #####,   #    #        
            '#,     ,#'  ##    ##  '#,     ,#' ,#      #,     #,   #   #,  ,#        
             '#######'   ##     ##  '#######'  #'      '#     '####' # '####'        



                #########################################################
                #                        -***-                          #
                #          Department of theory and spectroscopy        #
                #                                                       #
                #                      Frank Neese                      #
                #                                                       #
                #     Directorship, Architecture, Infrastructure        #
                #                    SHARK, DRIVERS                     #
                #        Core code/Algorithms in most modules           #
                #                                                       #
                #        Max Planck Institute fuer Kohlenforschung      #
                #                Kaiser Wilhelm Platz 1                 #
                #                 D-45470 Muelheim/Ruhr                 #
                #                      Germany                          #
                #                                                       #
                #                  All rights reserved                  #
                #                        -***-                          #
                #########################################################


                         Program Version 6.0.1  -  RELEASE   -


 With contributions from (in alphabetic order):
[Max-Planck-Institut fuer Kohlenforschung]                               
  Daniel Aravena         : Magnetic Suceptibility                        
  Michael Atanasov       : Ab Initio Ligand Field Theory (pilot matlab implementation)
  Alexander A. Auer      : GIAO ZORA, VPT2 properties, NMR spectrum      
  Ute Becker             : All parallelization in ORCA, NUMFREQ, NUMCALC 
  Giovanni Bistoni       : ED, misc. LED, open-shell LED, HFLD           
  Martin Brehm           : Molecular dynamics                            
  Dmytro Bykov           : pre 5.0 version of the SCF Hessian            
  Marcos Casanova-Páez   : Triplet and SCS-CIS(D). UHF-(DLPNO)-IP/EA/STEOM-CCSD. UHF-CVS-IP/STEOM-CCSD   
  Vijay G. Chilkuri      : MRCI spin determinant printing, contributions to CSF-ICE 
  Pauline Colinet        : FMM embedding                                 
  Dipayan Datta          : RHF DLPNO-CCSD density                        
  Achintya Kumar Dutta   : EOM-CC, STEOM-CC                              
  Nicolas Foglia         : Exact transition moments, OPA infrastructure, MCD improvements    
  Dmitry Ganyushin       : Spin-Orbit,Spin-Spin,Magnetic field MRCI      
  Miquel Garcia-Rates    : C-PCM and meta-GGA Hessian, CCSD/C-PCM, Gaussian charge scheme 
  Tiago L. C. Gouveia    : GS-ROHF, GS-ROCIS                             
  Yang Guo               : DLPNO-NEVPT2, F12-NEVPT2, CIM, IAO-localization        
  Andreas Hansen         : Spin unrestricted coupled pair/coupled cluster methods 
  Ingolf Harden          : AUTO-CI MPn and infrastructure                
  Benjamin Helmich-Paris : MC-RPA, TRAH-(SCF,CASSCF), AVAS, COSX integrals, SCF dyn. polar. 
  Lee Huntington         : MR-EOM, pCC                                   
  Robert Izsak           : Overlap fitted RIJCOSX, COSX-SCS-MP3, EOM     
  Riya Kayal             : Wick's Theorem for AUTO-CI, AUTO-CI UHF-CCSDT 
  Emily Kempfer          : AUTO-CI, RHF CISDT and CCSDT                  
  Christian Kollmar      : KDIIS, OOCD, Brueckner-CCSD(T), CCSD density, CASPT2, CASPT2-K, improved NEVPT2 
  Axel Koslowski         : Symmetry handling                             
  Simone Kossmann        : meta-GGA functionals, TD-DFT gradient, OOMP2, (MP2 Hessian; deprecated post 5.0) 
  Lucas Lang             : DCDCAS                                        
  Marvin Lechner         : AUTO-CI (C++ implementation), FIC-MRCC        
  Spencer Leger          : CASSCF response                               
  Dagmar Lenk            : GEPOL surface, SMD, ORCA-2-JSON               
  Dimitrios Liakos       : Extrapolation schemes; Compound Job, initial MDCI parallelization 
  Dimitrios Manganas     : Further ROCIS development; embedding schemes. LFT, Crystal Embedding 
  Dimitrios Pantazis     : SARC Basis sets                               
  Anastasios Papadopoulos: AUTO-CI, single reference methods and gradients 
  Taras Petrenko         : pre 6.0 DFT Hessian and TD-DFT gradient, (ASA, deprecated), ECA, 1-Electron XAS/XES, NRVS 
  Peter Pinski           : DLPNO-MP2, DLPNO-MP2 Gradient                 
  Christoph Reimann      : Effective Core Potentials                     
  Marius Retegan         : Local ZFS, SOC                                
  Christoph Riplinger    : Optimizer, TS searches, QM/MM, DLPNO-CCSD(T), (RO)-DLPNO pert. Triples 
  Michael Roemelt        : Original ROCIS implementation                 
  Masaaki Saitow         : Open-shell DLPNO-CCSD energy and density      
  Barbara Sandhoefer     : DKH picture change effects                    
  Kantharuban Sivalingam : CASSCF convergence/infrastructure, NEVPT2 and variants, FIC-MRCI 
  Bernardo de Souza      : ESD, SOC TD-DFT                               
  Georgi L. Stoychev     : AutoAux, RI-MP2 NMR, DLPNO-MP2 response, X2C  
  Van Anh Tran           : RI-MP2 g-tensors                              
  Willem Van den Heuvel  : Paramagnetic NMR                              
  Zikuan Wang            : NOTCH, Electric field optimization            
  Frank Wennmohs         : Technical directorship and infrastructure     
  Hang Xu                : AUTO-CI-Response properties                   
                                                                         
[FACCTs GmbH]                                                            
  Markus Bursch, Miquel Garcia-Rates, Christoph Riplinger, Bernardo de Souza, Georgi L. Stoychev 
                                                                 
  APM, Basis sets (HGBS, AHGBS, def-TZVP (Ac-Lr), def2-XVPD (La-Lu)), CI-OPT, improved COSX, DLPNO-Multilevel,           
  DOCKER, DRACO, updates on ESD, GOAT, IRC, LR-CPCM, MBIS, meta-GGA TD-DFT gradient, ML-optimized integration grids, 
  MM, NACMEs, nearIR, NEB, NEB-TS, NL-DFT gradient (VV10), 2- and 3-layer-ONIOM, interface openCOSMO-RS, QMMM,   
  Crystal-QMMM, SF, symmetry and pop. for TD-DFT, r2SCAN hybrids, SOLVATOR                                   
                                                                         
[Other institutions]                                                     
  V. Asgeirsson          : NEB                                           
  Christoph Bannwarth    : sTDA-DFT, sTD-DFT, PBEh-3c, B97-3c, D3        
  Sebastian Ehlert       : rSCAN, r2SCAN, r2SCAN-3c, D4, dhf basis sets  
  Marvin Friede          : D4 for Fr, Ra, Ac-Lr                          
  Lars Goerigk           : TD-DFT with DH, B97 family of functionals     
  Stefan Grimme          : VdW corrections, initial TS optimization, DFT functionals, gCP, sTDA/sTD-DF 
  Waldemar Hujo          : DFT-NL                                        
  H. Jonsson             : NEB                                           
  Holger Kruse           : gCP                                           
  Marcel Mueller         : wB97X-3c, vDZP basis set                      
  Hagen Neugebauer       : wr2SCAN                                       
  Tobias Risthaus        : range-separated hybrid DFT                    
  Lukas Wittmann         : regularized MP2, r2SCAN double-hybrids, wr2SCAN        
                                                                         
We gratefully acknowledge several colleagues who have allowed us to      
interface, adapt or use parts of their codes:                            
  Ed Valeev, F. Pavosevic, A. Kumar             : LibInt (2-el integral package), F12 methods 
  Garnet Chan, S. Sharma, J. Yang, R. Olivares  : DMRG                   
  Ulf Ekstrom                                   : XCFun DFT Library      
  Mihaly Kallay                                 : mrcc  (arbitrary order and MRCC methods)
  Frank Weinhold                                : gennbo (NPA and NBO analysis)           
  Simon Mueller                                 : openCOSMO-RS                            
  Christopher J. Cramer and Donald G. Truhlar   : smd solvation model                     
  S Lehtola, MJT Oliveira, MAL Marques          : LibXC Library                           
  Liviu Ungur et al                             : ANISO software                          


 Your calculation uses the libint2 library for the computation of 2-el integrals
 For citations please refer to: http://libint.valeyev.net

 Your ORCA version has been built with support for libXC version: 6.2.2
 For citations please refer to: https://libxc.gitlab.io

 This ORCA versions uses:
   CBLAS   interface :  Fast vector & matrix operations
   LAPACKE interface :  Fast linear algebra routines
   SCALAPACK package :  Parallel linear algebra routines
   Shared memory     :  Shared parallel matrices
   BLAS/LAPACK       :  OpenBLAS 0.3.27  USE64BITINT DYNAMIC_ARCH NO_AFFINITY SkylakeX SINGLE_THREADED
        Core in use  :  SkylakeX
   Copyright (c) 2011-2014, The OpenBLAS Project


================================================================================

----- Orbital basis set information -----
Your calculation utilizes the basis: def2-TZVPD
   F. Weigend and R. Ahlrichs, Phys. Chem. Chem. Phys. 7, 3297 (2005).
   D. Rappoport and F. Furche, J. Chem. Phys. 133, 134105 (2010)
   D. Rappoport, J. Chem. Phys. 155, 124102 (2021).

================================================================================
                                        WARNINGS
                       Please study these warnings very carefully!
================================================================================

WARNING: Old DensityContainer found on disk!
         Will remove this file - 
         If you want to keep old densities, please start your calculation with a different basename. 


================================================================================
                                       INPUT FILE
================================================================================
NAME = reference.hf.inp
|  1> ! RHF def2-TZVPD
|  2> 
|  3> %pal nprocs 4 end
|  4> 
|  5> %output Print[P_ReducedOrbPopMO_L] 1 end
|  6> 
|  7> * xyz 0 1
|  8>   C       0.000    0.000    0.000
|  9>   O       1.163    0.000    0.000
| 10>   O      -1.163    0.000    0.000
| 11> *
| 12> 
| 13>                          ****END OF INPUT****
================================================================================

                       ****************************
                       * Single Point Calculation *
                       ****************************

---------------------------------
CARTESIAN COORDINATES (ANGSTROEM)
---------------------------------
  C      0.000000    0.000000    0.000000
  O      1.163000    0.000000    0.000000
  O     -1.163000    0.000000    0.000000

----------------------------
CARTESIAN COORDINATES (A.U.)
----------------------------
  NO LB      ZA    FRAG     MASS         X           Y           Z
   0 C     6.0000    0    12.011    0.000000    0.000000    0.000000
   1 O     8.0000    0    15.999    2.197751    0.000000    0.000000
   2 O     8.0000    0    15.999   -2.197751    0.000000    0.000000

--------------------------------
INTERNAL COORDINATES (ANGSTROEM)
--------------------------------
 C      0   0   0     0.000000000000     0.00000000     0.00000000
 O      1   0   0     1.163000000000     0.00000000     0.00000000
 O      1   2   0     1.163000000000   180.00000000     0.00000000

---------------------------
INTERNAL COORDINATES (A.U.)
---------------------------
 C      0   0   0     0.000000000000     0.00000000     0.00000000
 O      1   0   0     2.197751493750     0.00000000     0.00000000
 O      1   2   0     2.197751493750   180.00000000     0.00000000

---------------------
BASIS SET INFORMATION
---------------------
There are 2 groups of distinct atoms

 Group   1 Type C   : 12s6p3d1f contracted to 6s3p3d1f pattern {621111/411/111/1}
 Group   2 Type O   : 12s7p3d1f contracted to 6s4p3d1f pattern {621111/4111/111/1}

Atom   0C    basis set group =>   1
Atom   1O    basis set group =>   2
Atom   2O    basis set group =>   2


           ************************************************************
           *        Program running with 4 parallel MPI-processes     *
           *              working on a common directory               *
           ************************************************************
------------------------------------------------------------------------------
                             ORCA STARTUP CALCULATIONS
------------------------------------------------------------------------------
------------------------------------------------------------------------------
                   ___                                                        
                  /   \      - P O W E R E D   B Y -                         
                 /     \                                                     
                 |  |  |   _    _      __       _____    __    __             
                 |  |  |  | |  | |    /  \     |  _  \  |  |  /  |          
                  \  \/   | |  | |   /    \    | | | |  |  | /  /          
                 / \  \   | |__| |  /  /\  \   | |_| |  |  |/  /          
                |  |  |   |  __  | /  /__\  \  |    /   |      \           
                |  |  |   | |  | | |   __   |  |    \   |  |\   \          
                \     /   | |  | | |  |  |  |  | |\  \  |  | \   \       
                 \___/    |_|  |_| |__|  |__|  |_| \__\ |__|  \__/        
                                                                              
                      - O R C A' S   B I G   F R I E N D -                    
                                      &                                       
                       - I N T E G R A L  F E E D E R -                       
                                                                              
 v1 FN, 2020, v2 2021, v3 2022-2024                                           
------------------------------------------------------------------------------


----------------------
SHARK INTEGRAL PACKAGE
----------------------

Number of atoms                             ...      3
Number of basis functions                   ...    117
Number of shells                            ...     41
Maximum angular momentum                    ...      3
Integral batch strategy                     ... SHARK/LIBINT Hybrid
RI-J (if used) integral strategy            ... SPLIT-RIJ (Revised 2003 algorithm where possible)
Printlevel                                  ...      1
Contraction scheme used                     ... SEGMENTED contraction
Prescreening option                         ... SCHWARTZ
   Thresh                                   ... 1.000e-10
   Tcut                                     ... 1.000e-11
   Tpresel                                  ... 1.000e-11 
Coulomb Range Separation                    ... NOT USED
Exchange Range Separation                   ... NOT USED
Multipole approximations                    ... NOT USED
Finite Nucleus Model                        ... NOT USED
CABS basis                                  ... NOT available
Auxiliary Coulomb fitting basis             ... NOT available
Auxiliary J/K fitting basis                 ... NOT available
Auxiliary Correlation fitting basis         ... NOT available
Auxiliary 'external' fitting basis          ... NOT available

Checking pre-screening integrals            ... done (  0.0 sec) Dimension = 41
Check shell pair data                       ... done (  0.0 sec)
Shell pair information
Shell pair cut-off parameter TPreSel        ...   1.0e-11
Total number of shell pairs                 ...       861
Shell pairs after pre-screening             ...       849
Total number of primitive shell pairs       ...      2412
Primitive shell pairs kept                  ...      2113
          la=0 lb=0:    165 shell pairs
          la=1 lb=0:    196 shell pairs
          la=1 lb=1:     66 shell pairs
          la=2 lb=0:    158 shell pairs
          la=2 lb=1:     99 shell pairs
          la=2 lb=2:     45 shell pairs
          la=3 lb=0:     54 shell pairs
          la=3 lb=1:     33 shell pairs
          la=3 lb=2:     27 shell pairs
          la=3 lb=3:      6 shell pairs

Calculating one electron integrals          ... done (  0.0 sec)
Calculating Nuclear repulsion               ... done (  0.0 sec) ENN=     58.241343647807 Eh

Diagonalization of the overlap matrix:
Smallest eigenvalue                        ... 1.018e-04
Time for diagonalization                   ...    0.003 sec
Threshold for overlap eigenvalues          ... 1.000e-07
Number of eigenvalues below threshold      ... 0
Time for construction of square roots      ...    0.001 sec
Total time needed                          ...    0.005 sec

-------------------
DFT GRID GENERATION
-------------------

General Integration Accuracy     IntAcc      ... 4.388
Radial Grid Type                 RadialGrid  ... OptM3 with GC (2021)
Angular Grid (max. ang.)         AngularGrid ... 4 (Lebedev-302)
Angular grid pruning method      GridPruning ... 4 (adaptive)
Weight generation scheme         WeightScheme... mBecke (2022)
Basis function cutoff            BFCut       ... 1.0000e-10
Integration weight cutoff        WCut        ... 1.0000e-14
Partially contracted basis set               ... off
Rotationally invariant grid construction     ... off
Angular grids for H and He will be reduced by one unit
Diffuse basis detected: some atoms will have their outermost
                        angular grid increased by 1.

Total number of grid points                  ...    19300
Total number of batches                      ...      302
Average number of points per batch           ...       63
Average number of grid points per atom       ...     6433
Initializing property integral containers    ... done (  0.0 sec)

SHARK setup successfully completed in   0.2 seconds

Maximum memory used throughout the entire STARTUP-calculation: 12.4 MB


           ************************************************************
           *        Program running with 4 parallel MPI-processes     *
           *              working on a common directory               *
           ************************************************************
-------------------------------------------------------------------------------
                                 ORCA GUESS
                   Start orbitals & Density for SCF / CASSCF
-------------------------------------------------------------------------------

------------
SCF SETTINGS
------------
Hamiltonian:
 Ab initio Hamiltonian  Method          .... Hartree-Fock(GTOs)


General Settings:
 Integral files         IntName         .... reference.hf
 Hartree-Fock type      HFTyp           .... RHF
 Total Charge           Charge          ....    0
 Multiplicity           Mult            ....    1
 Number of Electrons    NEL             ....   22
 Basis Dimension        Dim             ....  117
 Nuclear Repulsion      ENuc            ....     58.2413436478 Eh

Convergence Acceleration:
 AO-DIIS                CNVDIIS         .... on
   Start iteration      DIISMaxIt       ....    12
   Startup error        DIISStart       ....  0.200000
   # of expansion vecs  DIISMaxEq       ....     5
   Bias factor          DIISBfac        ....   1.050
   Max. coefficient     DIISMaxC        ....  10.000
 MO-DIIS                CNVKDIIS        .... off
 Trust-Rad. Augm. Hess. CNVTRAH         .... auto
   Auto Start mean grad. ratio tolernc. ....  1.125000
   Auto Start start iteration           ....    50
   Auto Start num. interpolation iter.  ....    10
   Max. Number of Micro iterations      ....    24
   Max. Number of Macro iterations      .... Maxiter - #DIIS iter
   Number of Davidson start vectors     ....     2
   Converg. threshold    (grad. norm)   ....   5.000e-05
   Grad. Scal. Fac. for Micro threshold ....   0.100
   Minimum threshold for Micro iter.    ....   1.000e-02
   NR start threshold (gradient norm)   ....   1.000e-04
   Initial trust radius                 ....   0.400
   Minimum AH scaling param. (alpha)    ....   1.000
   Maximum AH scaling param. (alpha)    .... 1000.000
   Quad. conv. algorithm                .... NR
   White noise on init. David. guess    .... on
   Maximum white noise                  ....   0.010
   Pseudo random numbers                .... off
   Inactive MOs                         .... canonical
   Orbital update algorithm             .... Taylor
   Preconditioner                       .... Diag
   Full preconditioner red. dimension   ....   250
 SOSCF                  CNVSOSCF        .... on
   Start iteration      SOSCFMaxIt      ....   150
   Startup grad/error   SOSCFStart      ....  0.003300
   Hessian update       SOSCFHessUp     .... L-BFGS
 Level Shifting         CNVShift        .... on
   Level shift para.    LevelShift      ....    0.2500
   Turn off err/grad.   ShiftErr        ....    0.0010
 Zerner damping         CNVZerner       .... off
 Static damping         CNVDamp         .... on
   Fraction old density DampFac         ....    0.7000
   Max. Damping (<1)    DampMax         ....    0.9800
   Min. Damping (>=0)   DampMin         ....    0.0000
   Turn off err/grad.   DampErr         ....    0.1000

SCF Procedure:
 Maximum # iterations   MaxIter         ....   125
 SCF integral mode      SCFMode         .... Direct
   Integral package                     .... SHARK and LIBINT hybrid scheme
 Reset frequency        DirectResetFreq ....    20
 Integral Threshold     Thresh          ....  1.000e-10 Eh
 Primitive CutOff       TCut            ....  1.000e-11 Eh

Convergence Tolerance:
 Convergence Check Mode ConvCheckMode   .... Total+1el-Energy
 Convergence forced     ConvForced      .... 0
 Energy Change          TolE            ....  1.000e-06 Eh
 1-El. energy change                    ....  1.000e-03 Eh
 Orbital Gradient       TolG            ....  5.000e-05
 Orbital Rotation angle TolX            ....  5.000e-05
 DIIS Error             TolErr          ....  1.000e-06

------------------------------
INITIAL GUESS: MODEL POTENTIAL
------------------------------
Loading Hartree-Fock densities                     ... done
Calculating cut-offs                               ... done
Initializing the effective Hamiltonian             ... done
Setting up the integral package (SHARK)            ... done
Starting the Coulomb interaction                   ... done (   0.0 sec)
Making the grid                                    ... done (   0.0 sec)
Mapping shells                                     ... done
Starting the XC term evaluation                    ... done (   0.0 sec)
Transforming the Hamiltonian                       ... done (   0.0 sec)
Diagonalizing the Hamiltonian                      ... done (   0.0 sec)
Back transforming the eigenvectors                 ... done (   0.0 sec)
Now organizing SCF variables                       ... done
                      ------------------
                      INITIAL GUESS DONE (   0.0 sec)
                      ------------------
             **** ENERGY FILE WAS UPDATED (reference.hf.en.tmp) ****
Finished Guess after   0.2 sec
Maximum memory used throughout the entire GUESS-calculation: 7.1 MB


           ************************************************************
           *        Program running with 4 parallel MPI-processes     *
           *              working on a common directory               *
           ************************************************************

-------------------------------------------------------------------------------------------
                                      ORCA LEAN-SCF
                              memory conserving SCF solver
-------------------------------------------------------------------------------------------

----------------------------------------D-I-I-S--------------------------------------------
Iteration    Energy (Eh)           Delta-E    RMSDP     MaxDP     DIISErr   Damp  Time(sec)
-------------------------------------------------------------------------------------------
               ***  Starting incremental Fock matrix formation  ***
    1    -187.6003675268381130     0.00e+00  1.57e-03  3.29e-02  2.92e-01  0.700   0.3
    2    -187.6436026576499216    -4.32e-02  1.09e-03  2.21e-02  2.19e-01  0.700   0.3
                               ***Turning on AO-DIIS***
    3    -187.6671801018267729    -2.36e-02  7.56e-04  1.17e-02  1.63e-01  0.700   0.3
    4    -187.6820220455800268    -1.48e-02  5.61e-04  9.65e-03  1.15e-01  0.700   0.3
    5    -187.6922005536381448    -1.02e-02  4.06e-04  7.06e-03  8.04e-02  0.700   0.3
    6    -187.6993608832647737    -7.16e-03  9.66e-04  1.64e-02  5.62e-02  0.000   0.3
                              *** Initializing SOSCF ***
---------------------------------------S-O-S-C-F--------------------------------------
Iteration    Energy (Eh)           Delta-E    RMSDP     MaxDP     MaxGrad    Time(sec)
--------------------------------------------------------------------------------------
    7    -187.7161493117756663    -1.68e-02  4.52e-05  1.05e-03  2.16e-03     0.3
               *** Restarting incremental Fock matrix formation ***
    8    -187.7161630586655292    -1.37e-05  2.26e-05  4.40e-04  4.03e-04     0.3
    9    -187.7161655745356938    -2.52e-06  1.61e-05  3.86e-04  2.13e-04     0.3
   10    -187.7161660564451040    -4.82e-07  2.27e-06  5.05e-05  5.13e-05     0.3
                 **** Energy Check signals convergence ****

               *****************************************************
               *                     SUCCESS                       *
               *           SCF CONVERGED AFTER  10 CYCLES          *
               *****************************************************

             **** ENERGY FILE WAS UPDATED (reference.hf.en.tmp) ****

----------------
TOTAL SCF ENERGY
----------------

Total Energy       :       -187.71616605644510 Eh           -5108.01656 eV

Components:
Nuclear Repulsion  :         58.24134364780740 Eh            1584.82753 eV
Electronic Energy  :       -245.95750970425249 Eh           -6692.84410 eV
One Electron Energy:       -372.24311492011060 Eh          -10129.25012 eV
Two Electron Energy:        126.28560521585811 Eh            3436.40602 eV

Virial components:
Potential Energy   :       -375.10644975125649 Eh          -10207.16542 eV
Kinetic Energy     :        187.39028369481136 Eh            5099.14886 eV
Virial Ratio       :          2.00173905687749

---------------
SCF CONVERGENCE
---------------

  Last Energy change         ...    4.8191e-07  Tolerance :   1.0000e-06
  Last MAX-Density change    ...    5.0462e-05  Tolerance :   1.0000e-05
  Last RMS-Density change    ...    2.2713e-06  Tolerance :   1.0000e-06
  Last DIIS Error            ...    2.1619e-03  Tolerance :   1.0000e-06
  Last Orbital Gradient      ...    5.1311e-05  Tolerance :   5.0000e-05
  Last Orbital Rotation      ...    4.7098e-05  Tolerance :   5.0000e-05


----------------
ORBITAL ENERGIES
----------------

  NO   OCC          E(Eh)            E(eV) 
   0   2.0000     -20.651957      -561.9683 
   1   2.0000     -20.651915      -561.9672 
   2   2.0000     -11.461116      -311.8728 
   3   2.0000      -1.529867       -41.6298 
   4   2.0000      -1.476822       -40.1864 
   5   2.0000      -0.801097       -21.7990 
   6   2.0000      -0.743493       -20.2315 
   7   2.0000      -0.714966       -19.4552 
   8   2.0000      -0.714966       -19.4552 
   9   2.0000      -0.544877       -14.8268 
  10   2.0000      -0.544877       -14.8268 
  11   0.0000       0.045075         1.2266 
  12   0.0000       0.095605         2.6016 
  13   0.0000       0.102379         2.7859 
  14   0.0000       0.102379         2.7859 
  15   0.0000       0.129336         3.5194 
  16   0.0000       0.140154         3.8138 
  17   0.0000       0.140154         3.8138 
  18   0.0000       0.200481         5.4554 
  19   0.0000       0.201247         5.4762 
  20   0.0000       0.201247         5.4762 
  21   0.0000       0.255776         6.9600 
*Only the first 10 virtual orbitals were printed.

                    ********************************
                    * MULLIKEN POPULATION ANALYSIS *
                    ********************************

-----------------------
MULLIKEN ATOMIC CHARGES
-----------------------
   0 C :    0.904261
   1 O :   -0.452131
   2 O :   -0.452131
Sum of atomic charges:   -0.0000000

--------------------------------
MULLIKEN REDUCED ORBITAL CHARGES
--------------------------------
  0 C s       :     2.659481  s :     2.659481
      pz      :     0.640498  p :     2.104149
      px      :     0.823153
      py      :     0.640498
      dz2     :     0.006132  d :     0.296258
      dxz     :     0.135864
      dyz     :     0.000000
      dx2y2   :     0.018397
      dxy     :     0.135864
      f0      :     0.004993  f :     0.035851
      f+1     :     0.003459
      f-1     :     0.000832
      f+2     :     0.008321
      f-2     :     0.000000
      f+3     :     0.005764
      f-3     :     0.012482

  1 O s       :     3.926518  s :     3.926518
      pz      :     1.591319  p :     4.475698
      px      :     1.293061
      py      :     1.591319
      dz2     :     0.005343  d :     0.047665
      dxz     :     0.013147
      dyz     :    -0.000000
      dx2y2   :     0.016029
      dxy     :     0.013147
      f0      :     0.000261  f :     0.002250
      f+1     :     0.000321
      f-1     :     0.000044
      f+2     :     0.000435
      f-2     :     0.000000
      f+3     :     0.000535
      f-3     :     0.000653

  2 O s       :     3.926518  s :     3.926518
      pz      :     1.591319  p :     4.475698
      px      :     1.293061
      py      :     1.591319
      dz2     :     0.005343  d :     0.047665
      dxz     :     0.013147
      dyz     :     0.000000
      dx2y2   :     0.016029
      dxy     :     0.013147
      f0      :     0.000261  f :     0.002250
      f+1     :     0.000321
      f-1     :     0.000044
      f+2     :     0.000435
      f-2     :     0.000000
      f+3     :     0.000535
      f-3     :     0.000653



                     *******************************
                     * LOEWDIN POPULATION ANALYSIS *
                     *******************************

----------------------
LOEWDIN ATOMIC CHARGES
----------------------
   0 C :   -0.322291
   1 O :    0.161145
   2 O :    0.161145

-------------------------------
LOEWDIN REDUCED ORBITAL CHARGES
-------------------------------
  0 C s       :     2.680599  s :     2.680599
      pz      :     0.624902  p :     2.312330
      px      :     1.062526
      py      :     0.624902
      dz2     :     0.093573  d :     1.185805
      dxz     :     0.405757
      dyz     :     0.000000
      dx2y2   :     0.280718
      dxy     :     0.405757
      f0      :     0.018134  f :     0.143556
      f+1     :     0.017566
      f-1     :     0.003022
      f+2     :     0.030223
      f-2     :     0.000000
      f+3     :     0.029277
      f-3     :     0.045334

  1 O s       :     3.354457  s :     3.354457
      pz      :     1.419059  p :     4.309499
      px      :     1.471380
      py      :     1.419059
      dz2     :     0.022121  d :     0.169049
      dxz     :     0.040283
      dyz     :     0.000000
      dx2y2   :     0.066362
      dxy     :     0.040283
      f0      :     0.000431  f :     0.005851
      f+1     :     0.001331
      f-1     :     0.000072
      f+2     :     0.000719
      f-2     :     0.000000
      f+3     :     0.002219
      f-3     :     0.001078

  2 O s       :     3.354457  s :     3.354457
      pz      :     1.419059  p :     4.309499
      px      :     1.471380
      py      :     1.419059
      dz2     :     0.022121  d :     0.169049
      dxz     :     0.040283
      dyz     :     0.000000
      dx2y2   :     0.066362
      dxy     :     0.040283
      f0      :     0.000431  f :     0.005851
      f+1     :     0.001331
      f-1     :     0.000072
      f+2     :     0.000719
      f-2     :     0.000000
      f+3     :     0.002219
      f-3     :     0.001078


------------------------------------------
LOEWDIN REDUCED ORBITAL POPULATIONS PER MO
-------------------------------------------
THRESHOLD FOR PRINTING IS 0.1%%
                      0         1         2         3         4         5   
                 -20.65196 -20.65191 -11.46112  -1.52987  -1.47682  -0.80110
                   2.00000   2.00000   2.00000   2.00000   2.00000   2.00000
                  --------  --------  --------  --------  --------  --------
 0 C  s               0.0       0.0      98.3      25.8       0.0       9.9
 0 C  px              0.2       0.0       0.0       0.0      38.3       0.0
 0 C  dz2             0.0       0.1       0.0       2.5       0.0       2.0
 0 C  dx2y2           0.0       0.3       0.0       7.6       0.0       6.1
 0 C  f+1             0.2       0.0       0.0       0.0       0.7       0.0
 0 C  f+3             0.3       0.0       0.0       0.0       1.2       0.0
 1 O  s              49.7      49.8       0.1      24.3      26.8       9.3
 1 O  px              0.0       0.0       0.3       5.7       2.3      30.9
 1 O  dz2             0.0       0.0       0.1       0.5       0.2       0.2
 1 O  dx2y2           0.0       0.0       0.4       1.5       0.6       0.6
 2 O  s              49.7      49.8       0.1      24.3      26.8       9.3
 2 O  px              0.0       0.0       0.3       5.7       2.3      30.9
 2 O  dz2             0.0       0.0       0.1       0.5       0.2       0.2
 2 O  dx2y2           0.0       0.0       0.4       1.5       0.6       0.6

                      6         7         8         9        10        11   
                  -0.74349  -0.71497  -0.71497  -0.54488  -0.54488   0.04508
                   2.00000   2.00000   2.00000   2.00000   2.00000   0.00000
                  --------  --------  --------  --------  --------  --------
 0 C  s               0.0       0.0       0.0       0.0       0.0      76.9
 0 C  pz              0.0      10.4      20.9       0.0       0.0       0.0
 0 C  px             14.7       0.0       0.0       0.0       0.0       0.0
 0 C  py              0.0      20.9      10.4       0.0       0.0       0.0
 0 C  dz2             0.0       0.0       0.0       0.0       0.0       1.9
 0 C  dxz             0.0       0.0       0.0      19.9       0.4       0.0
 0 C  dx2y2           0.0       0.0       0.0       0.0       0.0       5.8
 0 C  dxy             0.0       0.0       0.0       0.4      19.9       0.0
 0 C  f0              0.0       0.3       0.6       0.0       0.0       0.0
 0 C  f-1             0.0       0.1       0.1       0.0       0.0       0.0
 0 C  f+2             0.0       0.5       1.0       0.0       0.0       0.0
 0 C  f-3             0.0       1.5       0.8       0.0       0.0       0.0
 1 O  s               7.7       0.0       0.0       0.0       0.0       5.0
 1 O  pz              0.0      10.4      21.0      38.7       0.8       0.0
 1 O  px             34.4       0.0       0.0       0.0       0.0       2.1
 1 O  py              0.0      21.0      10.4       0.8      38.7       0.0
 1 O  dz2             0.1       0.0       0.0       0.0       0.0       0.2
 1 O  dxz             0.0       0.6       1.1       0.3       0.0       0.0
 1 O  dx2y2           0.4       0.0       0.0       0.0       0.0       0.5
 1 O  dxy             0.0       1.1       0.6       0.0       0.3       0.0
 2 O  s               7.7       0.0       0.0       0.0       0.0       5.0
 2 O  pz              0.0      10.4      21.0      38.7       0.8       0.0
 2 O  px             34.4       0.0       0.0       0.0       0.0       2.1
 2 O  py              0.0      21.0      10.4       0.8      38.7       0.0
 2 O  dz2             0.1       0.0       0.0       0.0       0.0       0.2
 2 O  dxz             0.0       0.6       1.1       0.3       0.0       0.0
 2 O  dx2y2           0.4       0.0       0.0       0.0       0.0       0.5
 2 O  dxy             0.0       1.1       0.6       0.0       0.3       0.0

                     12        13        14        15        16        17   
                   0.09561   0.10238   0.10238   0.12934   0.14015   0.14015
                   0.00000   0.00000   0.00000   0.00000   0.00000   0.00000
                  --------  --------  --------  --------  --------  --------
 0 C  s               0.0       0.0       0.0       2.1       0.0       0.0
 0 C  pz              0.0       1.1       0.0       0.0       0.0       0.0
 0 C  py              0.0       0.0       1.1       0.0       0.0       0.0
 0 C  dz2             0.0       0.0       0.0       0.9       0.0       0.0
 0 C  dxz             0.0       0.0       0.0       0.0       1.2       3.1
 0 C  dx2y2           0.0       0.0       0.0       2.8       0.0       0.0
 0 C  dxy             0.0       0.0       0.0       0.0       3.1       1.2
 1 O  s               0.5       0.0       0.0       0.3       0.0       0.0
 1 O  pz              0.0      49.2       0.0       0.0      12.6      33.6
 1 O  px             49.2       0.0       0.0      45.5       0.0       0.0
 1 O  py              0.0       0.0      49.2       0.0      33.6      12.6
 1 O  dz2             0.1       0.0       0.0       0.3       0.0       0.0
 1 O  dxz             0.0       0.2       0.0       0.0       0.4       1.2
 1 O  dx2y2           0.2       0.0       0.0       1.0       0.0       0.0
 1 O  dxy             0.0       0.0       0.2       0.0       1.2       0.4
 2 O  s               0.5       0.0       0.0       0.3       0.0       0.0
 2 O  pz              0.0      49.2       0.0       0.0      12.6      33.6
 2 O  px             49.2       0.0       0.0      45.5       0.0       0.0
 2 O  py              0.0       0.0      49.2       0.0      33.6      12.6
 2 O  dz2             0.1       0.0       0.0       0.3       0.0       0.0
 2 O  dxz             0.0       0.2       0.0       0.0       0.4       1.2
 2 O  dx2y2           0.2       0.0       0.0       1.0       0.0       0.0
 2 O  dxy             0.0       0.0       0.2       0.0       1.2       0.4

                     18        19        20        21        22        23   
                   0.20048   0.20125   0.20125   0.25578   0.25613   0.25613
                   0.00000   0.00000   0.00000   0.00000   0.00000   0.00000
                  --------  --------  --------  --------  --------  --------
 0 C  s              26.5       0.0       0.0       0.0       0.0       0.0
 0 C  pz              0.0      21.6      11.9       0.0       0.0       0.0
 0 C  px              0.0       0.0       0.0       8.7       0.0       0.0
 0 C  py              0.0      11.9      21.6       0.0       0.0       0.0
 0 C  dz2             2.8       0.0       0.0       0.0      15.3      46.8
 0 C  dyz             0.0       0.0       0.0       0.0      62.5      20.4
 0 C  dx2y2           8.3       0.0       0.0       0.0       5.1      15.6
 0 C  f0              0.0       1.1       0.6       0.0       0.0       0.0
 0 C  f-1             0.0       0.1       0.2       0.0       0.0       0.0
 0 C  f+2             0.0       1.9       1.0       0.0       0.0       0.0
 0 C  f+3             0.0       0.0       0.0       0.1       0.0       0.0
 0 C  f-3             0.0       1.5       2.8       0.0       0.0       0.0
 1 O  s              30.2       0.0       0.0      38.0       0.0       0.0
 1 O  pz              0.0       9.0       4.9       0.0       0.0       0.0
 1 O  px              0.9       0.0       0.0       2.9       0.0       0.0
 1 O  py              0.0       4.9       9.0       0.0       0.0       0.0
 1 O  dz2             0.0       0.0       0.0       1.2       1.6       4.8
 1 O  dxz             0.0      10.8       5.9       0.0       0.0       0.0
 1 O  dyz             0.0       0.0       0.0       0.0       6.4       2.1
 1 O  dx2y2           0.1       0.0       0.0       3.5       0.5       1.6
 1 O  dxy             0.0       5.9      10.8       0.0       0.0       0.0
 1 O  f+2             0.0       0.2       0.1       0.0       0.0       0.0
 1 O  f-3             0.0       0.1       0.2       0.0       0.0       0.0
 2 O  s              30.2       0.0       0.0      38.0       0.0       0.0
 2 O  pz              0.0       9.0       4.9       0.0       0.0       0.0
 2 O  px              0.9       0.0       0.0       2.9       0.0       0.0
 2 O  py              0.0       4.9       9.0       0.0       0.0       0.0
 2 O  dz2             0.0       0.0       0.0       1.2       1.6       4.8
 2 O  dxz             0.0      10.8       5.9       0.0       0.0       0.0
 2 O  dyz             0.0       0.0       0.0       0.0       6.4       2.1
 2 O  dx2y2           0.1       0.0       0.0       3.5       0.5       1.6
 2 O  dxy             0.0       5.9      10.8       0.0       0.0       0.0
 2 O  f+2             0.0       0.2       0.1       0.0       0.0       0.0
 2 O  f-3             0.0       0.1       0.2       0.0       0.0       0.0

                     24        25        26        27        28        29   
                   0.37053   0.38863   0.38863   0.42357   0.42357   0.45842
                   0.00000   0.00000   0.00000   0.00000   0.00000   0.00000
                  --------  --------  --------  --------  --------  --------
 0 C  s              21.0       0.0       0.0       0.0       0.0       9.9
 0 C  pz              0.0      85.3       0.1       0.0       0.0       0.0
 0 C  py              0.0       0.1      85.3       0.0       0.0       0.0
 0 C  dz2             7.6       0.0       0.0       0.0       0.0      12.1
 0 C  dxz             0.0       0.0       0.0      29.4      50.8       0.0
 0 C  dx2y2          22.9       0.0       0.0       0.0       0.0      36.2
 0 C  dxy             0.0       0.0       0.0      50.8      29.4       0.0
 1 O  s              12.8       0.0       0.0       0.0       0.0       6.2
 1 O  pz              0.0       5.0       0.0       3.0       5.2       0.0
 1 O  px             10.8       0.0       0.0       0.0       0.0       4.5
 1 O  py              0.0       0.0       5.0       5.2       3.0       0.0
 1 O  dz2             0.2       0.0       0.0       0.0       0.0       2.5
 1 O  dxz             0.0       2.1       0.0       0.6       1.1       0.0
 1 O  dx2y2           0.5       0.0       0.0       0.0       0.0       7.6
 1 O  dxy             0.0       0.0       2.1       1.1       0.6       0.0
 1 O  f-3             0.0       0.0       0.1       0.0       0.0       0.0
 2 O  s              12.8       0.0       0.0       0.0       0.0       6.2
 2 O  pz              0.0       5.0       0.0       3.0       5.2       0.0
 2 O  px             10.8       0.0       0.0       0.0       0.0       4.5
 2 O  py              0.0       0.0       5.0       5.2       3.0       0.0
 2 O  dz2             0.2       0.0       0.0       0.0       0.0       2.5
 2 O  dxz             0.0       2.1       0.0       0.6       1.1       0.0
 2 O  dx2y2           0.5       0.0       0.0       0.0       0.0       7.6
 2 O  dxy             0.0       0.0       2.1       1.1       0.6       0.0
 2 O  f-3             0.0       0.0       0.1       0.0       0.0       0.0

                     30        31        32        33        34        35   
                   0.47226   0.52262   0.52262   0.56166   0.61237   0.61237
                   0.00000   0.00000   0.00000   0.00000   0.00000   0.00000
                  --------  --------  --------  --------  --------  --------
 0 C  s               0.0       0.0       0.0       9.0       0.0       0.0
 0 C  pz              0.0       0.0       0.0       0.0      13.1       3.8
 0 C  px              4.7       0.0       0.0       0.0       0.0       0.0
 0 C  py              0.0       0.0       0.0       0.0       3.8      13.1
 0 C  dz2             0.0       0.0       0.0       6.9       0.0       0.0
 0 C  dx2y2           0.0       0.0       0.0      20.6       0.0       0.0
 0 C  f0              0.0       0.0       0.0       0.0       0.7       0.2
 0 C  f+1             0.1       0.0       0.4       0.0       0.0       0.0
 0 C  f-1             0.0       0.0       0.0       0.0       0.0       0.1
 0 C  f+2             0.0       0.0       0.0       0.0       1.1       0.3
 0 C  f-2             0.0       0.6       0.0       0.0       0.0       0.0
 0 C  f+3             0.1       0.0       0.2       0.0       0.0       0.0
 0 C  f-3             0.0       0.0       0.0       0.0       0.5       1.7
 1 O  s               5.7       0.0       0.0       0.7       0.0       0.0
 1 O  pz              0.0       0.0       0.0       0.0       6.8       1.9
 1 O  px              2.3       0.0       0.0       2.0       0.0       0.0
 1 O  py              0.0       0.0       0.0       0.0       1.9       6.8
 1 O  dz2             9.9       1.4      35.9       7.3       0.0       0.0
 1 O  dxz             0.0       0.0       0.0       0.0      24.3       7.0
 1 O  dyz             0.0      47.9       1.8       0.0       0.0       0.0
 1 O  dx2y2          29.7       0.5      12.0      21.8       0.0       0.0
 1 O  dxy             0.0       0.0       0.0       0.0       7.0      24.3
 1 O  f0              0.0       0.0       0.0       0.0       0.1       0.0
 1 O  f+2             0.0       0.0       0.0       0.0       0.2       0.1
 1 O  f-3             0.0       0.0       0.0       0.0       0.1       0.4
 2 O  s               5.7       0.0       0.0       0.7       0.0       0.0
 2 O  pz              0.0       0.0       0.0       0.0       6.8       1.9
 2 O  px              2.3       0.0       0.0       2.0       0.0       0.0
 2 O  py              0.0       0.0       0.0       0.0       1.9       6.8
 2 O  dz2             9.9       1.4      35.9       7.3       0.0       0.0
 2 O  dxz             0.0       0.0       0.0       0.0      24.3       7.0
 2 O  dyz             0.0      47.9       1.8       0.0       0.0       0.0
 2 O  dx2y2          29.7       0.5      12.0      21.8       0.0       0.0
 2 O  dxy             0.0       0.0       0.0       0.0       7.0      24.3
 2 O  f0              0.0       0.0       0.0       0.0       0.1       0.0
 2 O  f+2             0.0       0.0       0.0       0.0       0.2       0.1
 2 O  f-3             0.0       0.0       0.0       0.0       0.1       0.4

                     36        37        38        39        40        41   
                   0.63166   0.63166   0.64068   0.64068   0.65154   0.82115
                   0.00000   0.00000   0.00000   0.00000   0.00000   0.00000
                  --------  --------  --------  --------  --------  --------
 0 C  s               0.0       0.0       0.0       0.0       0.0      46.3
 0 C  px              0.0       0.0       0.0       0.0      64.2       0.0
 0 C  dz2             1.7      17.8       0.0       0.0       0.0       2.0
 0 C  dxz             0.0       0.0       8.0       0.4       0.0       0.0
 0 C  dyz            23.7       2.3       0.0       0.0       0.0       0.0
 0 C  dx2y2           0.6       5.9       0.0       0.0       0.0       6.0
 0 C  dxy             0.0       0.0       0.4       8.0       0.0       0.0
 0 C  f+1             0.0       0.0       0.0       0.0       0.6       0.0
 0 C  f+3             0.0       0.0       0.0       0.0       1.0       0.0
 1 O  s               0.0       0.0       0.0       0.0      13.0       3.9
 1 O  pz              0.0       0.0       1.3       0.1       0.0       0.0
 1 O  px              0.0       0.0       0.0       0.0       1.2       9.8
 1 O  py              0.0       0.0       0.1       1.3       0.0       0.0
 1 O  dz2             2.5      25.3       0.0       0.0       0.7       2.2
 1 O  dxz             0.0       0.0      42.5       1.9       0.0       0.0
 1 O  dyz            33.7       3.3       0.0       0.0       0.0       0.0
 1 O  dx2y2           0.8       8.4       0.0       0.0       2.1       6.5
 1 O  dxy             0.0       0.0       1.9      42.5       0.0       0.0
 1 O  f+1             0.0       0.0       0.0       0.0       0.0       0.2
 1 O  f+3             0.0       0.0       0.0       0.0       0.0       0.3
 2 O  s               0.0       0.0       0.0       0.0      13.0       3.9
 2 O  pz              0.0       0.0       1.3       0.1       0.0       0.0
 2 O  px              0.0       0.0       0.0       0.0       1.2       9.8
 2 O  py              0.0       0.0       0.1       1.3       0.0       0.0
 2 O  dz2             2.5      25.3       0.0       0.0       0.7       2.2
 2 O  dxz             0.0       0.0      42.5       1.9       0.0       0.0
 2 O  dyz            33.7       3.3       0.0       0.0       0.0       0.0
 2 O  dx2y2           0.8       8.4       0.0       0.0       2.1       6.5
 2 O  dxy             0.0       0.0       1.9      42.5       0.0       0.0
 2 O  f+1             0.0       0.0       0.0       0.0       0.0       0.2
 2 O  f+3             0.0       0.0       0.0       0.0       0.0       0.3

                     42        43        44        45        46        47   
                   0.93516   0.95865   1.00040   1.00040   1.02010   1.02010
                   0.00000   0.00000   0.00000   0.00000   0.00000   0.00000
                  --------  --------  --------  --------  --------  --------
 0 C  s               0.0      14.0       0.0       0.0       0.0       0.0
 0 C  pz              0.0       0.0       0.0       0.0       3.8      17.9
 0 C  px              9.8       0.0       0.0       0.0       0.0       0.0
 0 C  py              0.0       0.0       0.0       0.0      17.9       3.8
 0 C  dz2             0.0       0.6      34.5      29.6       0.0       0.0
 0 C  dyz             0.0       0.0      39.5      46.0       0.0       0.0
 0 C  dx2y2           0.0       1.8      11.5       9.9       0.0       0.0
 0 C  f0              0.0       0.0       0.0       0.0       0.1       0.3
 0 C  f+2             0.0       0.0       0.0       0.0       0.1       0.5
 0 C  f-3             0.0       0.0       0.0       0.0       0.7       0.1
 1 O  s               3.2       3.7       0.0       0.0       0.0       0.0
 1 O  pz              0.0       0.0       0.0       0.0       6.0      28.4
 1 O  px             33.2      26.6       0.0       0.0       0.0       0.0
 1 O  py              0.0       0.0       0.0       0.0      28.4       6.0
 1 O  dz2             2.0       2.8       2.7       2.3       0.0       0.0
 1 O  dxz             0.0       0.0       0.0       0.0       0.7       3.2
 1 O  dyz             0.0       0.0       3.1       3.6       0.0       0.0
 1 O  dx2y2           6.1       8.4       0.9       0.8       0.0       0.0
 1 O  dxy             0.0       0.0       0.0       0.0       3.2       0.7
 1 O  f0              0.0       0.0       0.0       0.0       0.0       0.1
 1 O  f+1             0.1       0.1       0.2       0.1       0.0       0.0
 1 O  f+2             0.0       0.0       0.0       0.0       0.0       0.2
 1 O  f-2             0.0       0.0       0.2       0.3       0.0       0.0
 1 O  f+3             0.2       0.2       0.1       0.1       0.0       0.0
 1 O  f-3             0.0       0.0       0.0       0.0       0.3       0.1
 2 O  s               3.2       3.7       0.0       0.0       0.0       0.0
 2 O  pz              0.0       0.0       0.0       0.0       6.0      28.4
 2 O  px             33.2      26.6       0.0       0.0       0.0       0.0
 2 O  py              0.0       0.0       0.0       0.0      28.4       6.0
 2 O  dz2             2.0       2.8       2.7       2.3       0.0       0.0
 2 O  dxz             0.0       0.0       0.0       0.0       0.7       3.2
 2 O  dyz             0.0       0.0       3.1       3.6       0.0       0.0
 2 O  dx2y2           6.1       8.4       0.9       0.8       0.0       0.0
 2 O  dxy             0.0       0.0       0.0       0.0       3.2       0.7
 2 O  f0              0.0       0.0       0.0       0.0       0.0       0.1
 2 O  f+1             0.1       0.1       0.2       0.1       0.0       0.0
 2 O  f+2             0.0       0.0       0.0       0.0       0.0       0.2
 2 O  f-2             0.0       0.0       0.2       0.3       0.0       0.0
 2 O  f+3             0.2       0.2       0.1       0.1       0.0       0.0
 2 O  f-3             0.0       0.0       0.0       0.0       0.3       0.1

                     48        49        50        51        52        53   
                   1.06209   1.06209   1.17233   1.31336   1.31695   1.37879
                   0.00000   0.00000   0.00000   0.00000   0.00000   0.00000
                  --------  --------  --------  --------  --------  --------
 0 C  s               0.0       0.0       0.0       0.0      14.7       0.0
 0 C  px              0.0       0.0      19.3      28.0       0.0       0.0
 0 C  dz2             0.0       0.0       0.0       0.0       1.1       0.0
 0 C  dxz             0.0      14.3       0.0       0.0       0.0       2.0
 0 C  dx2y2           0.0       0.0       0.0       0.0       3.4       0.0
 0 C  dxy            14.3       0.0       0.0       0.0       0.0      42.9
 0 C  f+1             0.0       0.0       0.1       7.9       0.0       0.0
 0 C  f+3             0.0       0.0       0.2      13.1       0.0       0.0
 1 O  s               0.0       0.0      21.0      10.3      32.6       0.0
 1 O  pz              0.0      41.4       0.0       0.0       0.0       0.3
 1 O  px              0.0       0.0       6.3      12.2       1.1       0.0
 1 O  py             41.4       0.0       0.0       0.0       0.0       5.4
 1 O  dz2             0.0       0.0       3.2       0.7       1.7       0.0
 1 O  dxz             0.0       1.3       0.0       0.0       0.0       1.0
 1 O  dx2y2           0.0       0.0       9.5       2.1       5.0       0.0
 1 O  dxy             1.3       0.0       0.0       0.0       0.0      20.5
 1 O  f+1             0.0       0.0       0.0       0.1       0.0       0.0
 1 O  f+3             0.0       0.0       0.1       0.2       0.0       0.0
 1 O  f-3             0.1       0.0       0.0       0.0       0.0       0.3
 2 O  s               0.0       0.0      21.0      10.3      32.6       0.0
 2 O  pz              0.0      41.4       0.0       0.0       0.0       0.3
 2 O  px              0.0       0.0       6.3      12.2       1.1       0.0
 2 O  py             41.4       0.0       0.0       0.0       0.0       5.4
 2 O  dz2             0.0       0.0       3.2       0.7       1.7       0.0
 2 O  dxz             0.0       1.3       0.0       0.0       0.0       1.0
 2 O  dx2y2           0.0       0.0       9.5       2.1       5.0       0.0
 2 O  dxy             1.3       0.0       0.0       0.0       0.0      20.5
 2 O  f+1             0.0       0.0       0.0       0.1       0.0       0.0
 2 O  f+3             0.0       0.0       0.1       0.2       0.0       0.0
 2 O  f-3             0.1       0.0       0.0       0.0       0.0       0.3

                     54        55        56        57        58        59   
                   1.37879   1.86367   1.86367   1.86534   1.86534   1.99019
                   0.00000   0.00000   0.00000   0.00000   0.00000   0.00000
                  --------  --------  --------  --------  --------  --------
 0 C  pz              0.0      28.1      60.2       0.0       0.0       0.0
 0 C  px              0.0       0.0       0.0       0.0       0.0      49.1
 0 C  py              0.0      60.2      28.1       0.0       0.0       0.0
 0 C  dxz            42.9       0.0       0.0       0.0       0.0       0.0
 0 C  dxy             2.0       0.0       0.0       0.0       0.0       0.0
 0 C  f0              0.0       0.6       1.2       0.0       0.0       0.0
 0 C  f+1             0.0       0.0       0.0       0.4       8.3       6.8
 0 C  f-1             0.0       0.2       0.1       0.0       0.0       0.0
 0 C  f+2             0.0       1.0       2.0       0.0       0.0       0.0
 0 C  f-2             0.0       0.0       0.0      13.2       0.6       0.0
 0 C  f+3             0.0       0.0       0.0       0.2       5.0      11.3
 0 C  f-3             0.0       3.1       1.4       0.0       0.0       0.0
 1 O  s               0.0       0.0       0.0       0.0       0.0       9.3
 1 O  pz              5.4       0.9       2.0       0.0       0.0       0.0
 1 O  px              0.0       0.0       0.0       0.0       0.0       4.5
 1 O  py              0.3       2.0       0.9       0.0       0.0       0.0
 1 O  dz2             0.0       0.0       0.0       1.3      30.9       0.1
 1 O  dxz            20.5       0.1       0.3       0.0       0.0       0.0
 1 O  dyz             0.0       0.0       0.0      41.3       1.8       0.0
 1 O  dx2y2           0.0       0.0       0.0       0.4      10.3       0.3
 1 O  dxy             1.0       0.3       0.1       0.0       0.0       0.0
 1 O  f0              0.1       0.0       0.0       0.0       0.0       0.0
 1 O  f+1             0.0       0.0       0.0       0.0       0.0       0.9
 1 O  f+2             0.2       0.0       0.0       0.0       0.0       0.0
 1 O  f+3             0.0       0.0       0.0       0.0       0.0       1.4
 2 O  s               0.0       0.0       0.0       0.0       0.0       9.3
 2 O  pz              5.4       0.9       2.0       0.0       0.0       0.0
 2 O  px              0.0       0.0       0.0       0.0       0.0       4.5
 2 O  py              0.3       2.0       0.9       0.0       0.0       0.0
 2 O  dz2             0.0       0.0       0.0       1.3      30.9       0.1
 2 O  dxz            20.5       0.1       0.3       0.0       0.0       0.0
 2 O  dyz             0.0       0.0       0.0      41.3       1.8       0.0
 2 O  dx2y2           0.0       0.0       0.0       0.4      10.3       0.3
 2 O  dxy             1.0       0.3       0.1       0.0       0.0       0.0
 2 O  f0              0.1       0.0       0.0       0.0       0.0       0.0
 2 O  f+1             0.0       0.0       0.0       0.0       0.0       0.9
 2 O  f+2             0.2       0.0       0.0       0.0       0.0       0.0
 2 O  f+3             0.0       0.0       0.0       0.0       0.0       1.4

                     60        61        62        63        64        65   
                   1.99022   2.07537   2.07537   2.19070   2.19070   2.29281
                   0.00000   0.00000   0.00000   0.00000   0.00000   0.00000
                  --------  --------  --------  --------  --------  --------
 0 C  s              39.1       0.0       0.0       0.0       0.0      18.9
 0 C  pz              0.0       0.0       0.0       3.4       2.8       0.0
 0 C  py              0.0       0.0       0.0       2.8       3.4       0.0
 0 C  dz2             8.0       0.1       3.6       0.0       0.0       4.5
 0 C  dyz             0.0       4.8       0.2       0.0       0.0       0.0
 0 C  dx2y2          24.1       0.0       1.2       0.0       0.0      13.4
 0 C  f0              0.0       0.0       0.0       2.4       2.0       0.0
 0 C  f-1             0.0       0.0       0.0       0.3       0.4       0.0
 0 C  f+2             0.0       0.0       0.0       4.0       3.4       0.0
 0 C  f-3             0.0       0.0       0.0       5.0       6.1       0.0
 1 O  s               7.3       0.0       0.0       0.0       0.0       4.6
 1 O  pz              0.0       0.0       0.0       0.7       0.6       0.0
 1 O  px              5.8       0.0       0.0       0.0       0.0      14.0
 1 O  py              0.0       0.0       0.0       0.6       0.7       0.0
 1 O  dz2             0.2       1.3      34.3       0.0       0.0       3.0
 1 O  dxz             0.0       0.0       0.0      21.2      17.6       0.0
 1 O  dyz             0.0      45.7       1.7       0.0       0.0       0.0
 1 O  dx2y2           0.5       0.4      11.4       0.0       0.0       9.1
 1 O  dxy             0.0       0.0       0.0      17.6      21.2       0.0
 1 O  f0              0.0       0.0       0.0       0.2       0.2       0.0
 1 O  f+1             0.2       0.0       0.0       0.0       0.0       0.3
 1 O  f+2             0.0       0.0       0.0       0.3       0.3       0.0
 1 O  f+3             0.4       0.0       0.0       0.0       0.0       0.5
 1 O  f-3             0.0       0.0       0.0       0.4       0.5       0.0
 2 O  s               7.3       0.0       0.0       0.0       0.0       4.6
 2 O  pz              0.0       0.0       0.0       0.7       0.6       0.0
 2 O  px              5.8       0.0       0.0       0.0       0.0      14.0
 2 O  py              0.0       0.0       0.0       0.6       0.7       0.0
 2 O  dz2             0.2       1.3      34.3       0.0       0.0       3.0
 2 O  dxz             0.0       0.0       0.0      21.2      17.6       0.0
 2 O  dyz             0.0      45.7       1.7       0.0       0.0       0.0
 2 O  dx2y2           0.5       0.4      11.4       0.0       0.0       9.1
 2 O  dxy             0.0       0.0       0.0      17.6      21.2       0.0
 2 O  f0              0.0       0.0       0.0       0.2       0.2       0.0
 2 O  f+1             0.2       0.0       0.0       0.0       0.0       0.3
 2 O  f+2             0.0       0.0       0.0       0.3       0.3       0.0
 2 O  f+3             0.4       0.0       0.0       0.0       0.0       0.5
 2 O  f-3             0.0       0.0       0.0       0.4       0.5       0.0

                     66        67        68        69        70        71   
                   2.65860   2.66856   2.66856   2.81085   2.83799   2.83799
                   0.00000   0.00000   0.00000   0.00000   0.00000   0.00000
                  --------  --------  --------  --------  --------  --------
 0 C  s               0.0       0.0       0.0      35.8       0.0       0.0
 0 C  px             15.2       0.0       0.0       0.0       0.0       0.0
 0 C  dz2             0.0       0.0       0.0       2.9       0.0       0.0
 0 C  dxz             0.0       0.0      31.2       0.0       0.0       0.0
 0 C  dx2y2           0.0       0.0       0.0       8.8       0.0       0.0
 0 C  dxy             0.0      31.2       0.0       0.0       0.0       0.0
 0 C  f0              0.0       0.0       0.0       0.0       4.6      57.2
 0 C  f+1             0.2       0.0       0.0       0.0       0.0       0.0
 0 C  f-1             0.0       0.0       0.0       0.0      85.8       6.9
 0 C  f+2             0.0       0.0       0.0       0.0       2.7      34.3
 0 C  f+3             0.4       0.0       0.0       0.0       0.0       0.0
 0 C  f-3             0.0       0.0       0.0       0.0       5.7       0.5
 1 O  s               1.9       0.0       0.0       3.7       0.0       0.0
 1 O  pz              0.0       0.0      11.1       0.0       0.0       0.0
 1 O  px             16.6       0.0       0.0       1.9       0.0       0.0
 1 O  py              0.0      11.1       0.0       0.0       0.0       0.0
 1 O  dz2             5.4       0.0       0.0       3.3       0.0       0.0
 1 O  dxz             0.0       0.0      22.8       0.0       0.0       0.0
 1 O  dx2y2          16.2       0.0       0.0       9.9       0.0       0.0
 1 O  dxy             0.0      22.8       0.0       0.0       0.0       0.0
 1 O  f0              0.0       0.0       0.2       0.0       0.0       0.3
 1 O  f+1             0.7       0.0       0.0       2.8       0.0       0.0
 1 O  f-1             0.0       0.0       0.0       0.0       0.5       0.0
 1 O  f+2             0.0       0.0       0.3       0.0       0.0       0.2
 1 O  f+3             1.2       0.0       0.0       4.7       0.0       0.0
 1 O  f-3             0.0       0.4       0.0       0.0       0.0       0.0
 2 O  s               1.9       0.0       0.0       3.7       0.0       0.0
 2 O  pz              0.0       0.0      11.1       0.0       0.0       0.0
 2 O  px             16.6       0.0       0.0       1.9       0.0       0.0
 2 O  py              0.0      11.1       0.0       0.0       0.0       0.0
 2 O  dz2             5.4       0.0       0.0       3.3       0.0       0.0
 2 O  dxz             0.0       0.0      22.8       0.0       0.0       0.0
 2 O  dx2y2          16.2       0.0       0.0       9.9       0.0       0.0
 2 O  dxy             0.0      22.8       0.0       0.0       0.0       0.0
 2 O  f0              0.0       0.0       0.2       0.0       0.0       0.3
 2 O  f+1             0.7       0.0       0.0       2.8       0.0       0.0
 2 O  f-1             0.0       0.0       0.0       0.0       0.5       0.0
 2 O  f+2             0.0       0.0       0.3       0.0       0.0       0.2
 2 O  f+3             1.2       0.0       0.0       4.7       0.0       0.0
 2 O  f-3             0.0       0.4       0.0       0.0       0.0       0.0

                     72        73        74        75        76        77   
                   3.22766   3.22766   3.24374   3.24374   3.28215   3.28215
                   0.00000   0.00000   0.00000   0.00000   0.00000   0.00000
                  --------  --------  --------  --------  --------  --------
 0 C  pz              0.0       0.0       0.5       2.3       0.0       0.0
 0 C  py              0.0       0.0       2.3       0.5       0.0       0.0
 0 C  dz2             0.0       0.0       0.0       0.0      62.9      11.0
 0 C  dyz             0.0       0.0       0.0       0.0      14.6      83.9
 0 C  dx2y2           0.0       0.0       0.0       0.0      21.0       3.7
 0 C  f0              0.0       0.0       0.5       2.2       0.0       0.0
 0 C  f+1             3.1      43.6       0.0       0.0       0.0       0.0
 0 C  f-1             0.0       0.0       0.4       0.1       0.0       0.0
 0 C  f+2             0.0       0.0       0.9       3.7       0.0       0.0
 0 C  f-2            69.7       5.0       0.0       0.0       0.0       0.0
 0 C  f+3             1.9      26.1       0.0       0.0       0.0       0.0
 0 C  f-3             0.0       0.0       5.5       1.3       0.0       0.0
 1 O  pz              0.0       0.0       8.5      36.2       0.0       0.0
 1 O  py              0.0       0.0      36.2       8.5       0.0       0.0
 1 O  dz2             0.3       4.7       0.0       0.0       0.2       0.0
 1 O  dyz             6.2       0.4       0.0       0.0       0.0       0.2
 1 O  dx2y2           0.1       1.6       0.0       0.0       0.1       0.0
 1 O  f+1             0.2       3.5       0.0       0.0       0.3       0.0
 1 O  f-2             5.6       0.4       0.0       0.0       0.1       0.4
 1 O  f+3             0.1       2.1       0.0       0.0       0.2       0.0
 1 O  f-3             0.0       0.0       0.1       0.0       0.0       0.0
 2 O  pz              0.0       0.0       8.5      36.2       0.0       0.0
 2 O  py              0.0       0.0      36.2       8.5       0.0       0.0
 2 O  dz2             0.3       4.7       0.0       0.0       0.2       0.0
 2 O  dyz             6.2       0.4       0.0       0.0       0.0       0.2
 2 O  dx2y2           0.1       1.6       0.0       0.0       0.1       0.0
 2 O  f+1             0.2       3.5       0.0       0.0       0.3       0.0
 2 O  f-2             5.6       0.4       0.0       0.0       0.1       0.4
 2 O  f+3             0.1       2.1       0.0       0.0       0.2       0.0
 2 O  f-3             0.0       0.0       0.1       0.0       0.0       0.0

                     78        79        80        81        82        83   
                   3.28799   3.28799   3.53440   3.66556   3.79046   3.79046
                   0.00000   0.00000   0.00000   0.00000   0.00000   0.00000
                  --------  --------  --------  --------  --------  --------
 0 C  s               0.0       0.0       0.0       3.0       0.0       0.0
 0 C  px              0.0       0.0       1.4       0.0       0.0       0.0
 0 C  dz2             0.0       0.0       0.0       1.8       0.0       0.0
 0 C  dxz             0.1      48.5       0.0       0.0       8.8      18.3
 0 C  dx2y2           0.0       0.0       0.0       5.5       0.0       0.0
 0 C  dxy            48.5       0.1       0.0       0.0      18.3       8.8
 0 C  f+1             0.0       0.0       1.1       0.0       0.0       0.0
 0 C  f+3             0.0       0.0       1.8       0.0       0.0       0.0
 1 O  s               0.0       0.0      39.3      26.5       0.0       0.0
 1 O  pz              0.0      22.6       0.0       0.0       7.0      14.5
 1 O  px              0.0       0.0       7.0      17.0       0.0       0.0
 1 O  py             22.6       0.0       0.0       0.0      14.5       7.0
 1 O  dz2             0.0       0.0       0.4       0.3       0.0       0.0
 1 O  dxz             0.0       1.2       0.0       0.0       1.7       3.6
 1 O  dx2y2           0.0       0.0       1.1       1.0       0.0       0.0
 1 O  dxy             1.2       0.0       0.0       0.0       3.6       1.7
 1 O  f0              0.0       0.7       0.0       0.0       1.2       2.4
 1 O  f-1             0.1       0.0       0.0       0.0       0.4       0.2
 1 O  f+2             0.0       1.2       0.0       0.0       2.0       4.1
 1 O  f-3             1.8       0.0       0.0       0.0       6.1       2.9
 2 O  s               0.0       0.0      39.3      26.5       0.0       0.0
 2 O  pz              0.0      22.6       0.0       0.0       7.0      14.5
 2 O  px              0.0       0.0       7.0      17.0       0.0       0.0
 2 O  py             22.6       0.0       0.0       0.0      14.5       7.0
 2 O  dz2             0.0       0.0       0.4       0.3       0.0       0.0
 2 O  dxz             0.0       1.2       0.0       0.0       1.7       3.6
 2 O  dx2y2           0.0       0.0       1.1       1.0       0.0       0.0
 2 O  dxy             1.2       0.0       0.0       0.0       3.6       1.7
 2 O  f0              0.0       0.7       0.0       0.0       1.2       2.4
 2 O  f-1             0.1       0.0       0.0       0.0       0.4       0.2
 2 O  f+2             0.0       1.2       0.0       0.0       2.0       4.1
 2 O  f-3             1.8       0.0       0.0       0.0       6.1       2.9

                     84        85        86        87        88        89   
                   3.95411   4.07042   4.17677   4.17677   5.29764   5.49859
                   0.00000   0.00000   0.00000   0.00000   0.00000   0.00000
                  --------  --------  --------  --------  --------  --------
 0 C  s               0.0       2.1       0.0       0.0       0.0       0.0
 0 C  pz              0.0       0.0       0.0       3.9       0.0       0.0
 0 C  px             22.6       0.0       0.0       0.0       5.4       0.0
 0 C  py              0.0       0.0       3.9       0.0       0.0       0.0
 0 C  dz2             0.0      13.3       0.0       0.0       0.0       0.0
 0 C  dx2y2           0.0      39.8       0.0       0.0       0.0       0.0
 0 C  f0              0.0       0.0       0.2      18.0       0.0       0.0
 0 C  f+1             4.7       0.0       0.0       0.0      12.9       0.0
 0 C  f-1             0.0       0.0       3.0       0.0       0.0       0.0
 0 C  f+2             0.0       0.0       0.4      29.9       0.0       0.0
 0 C  f+3             7.8       0.0       0.0       0.0      21.5       0.0
 0 C  f-3             0.0       0.0      44.9       0.6       0.0       0.0
 1 O  s              10.0      11.7       0.0       0.0       9.5       0.0
 1 O  pz              0.0       0.0       0.1       4.6       0.0       0.0
 1 O  px             14.1       5.5       0.0       0.0       8.9       0.0
 1 O  py              0.0       0.0       4.6       0.1       0.0       0.0
 1 O  dz2             1.0       0.6       0.0       0.0       1.2       0.0
 1 O  dxz             0.0       0.0       0.1       5.0       0.0       0.0
 1 O  dx2y2           3.0       1.8       0.0       0.0       3.5       0.0
 1 O  dxy             0.0       0.0       5.0       0.1       0.0       0.0
 1 O  f0              0.0       0.0       0.1       5.2       0.0      16.6
 1 O  f+1             1.7       1.0       0.0       0.0       2.7       0.0
 1 O  f-1             0.0       0.0       0.9       0.0       0.0      21.9
 1 O  f+2             0.0       0.0       0.1       8.6       0.0      10.0
 1 O  f+3             2.8       1.7       0.0       0.0       4.4       0.0
 1 O  f-3             0.0       0.0      13.0       0.2       0.0       1.5
 2 O  s              10.0      11.7       0.0       0.0       9.5       0.0
 2 O  pz              0.0       0.0       0.1       4.6       0.0       0.0
 2 O  px             14.1       5.5       0.0       0.0       8.9       0.0
 2 O  py              0.0       0.0       4.6       0.1       0.0       0.0
 2 O  dz2             1.0       0.6       0.0       0.0       1.2       0.0
 2 O  dxz             0.0       0.0       0.1       5.0       0.0       0.0
 2 O  dx2y2           3.0       1.8       0.0       0.0       3.5       0.0
 2 O  dxy             0.0       0.0       5.0       0.1       0.0       0.0
 2 O  f0              0.0       0.0       0.1       5.2       0.0      16.6
 2 O  f+1             1.7       1.0       0.0       0.0       2.7       0.0
 2 O  f-1             0.0       0.0       0.9       0.0       0.0      21.9
 2 O  f+2             0.0       0.0       0.1       8.6       0.0      10.0
 2 O  f+3             2.8       1.7       0.0       0.0       4.4       0.0
 2 O  f-3             0.0       0.0      13.0       0.2       0.0       1.5

                     90        91        92        93        94        95   
                   5.49859   5.56673   5.56673   5.64704   5.64704   5.65511
                   0.00000   0.00000   0.00000   0.00000   0.00000   0.00000
                  --------  --------  --------  --------  --------  --------
 0 C  s               0.0       0.0       0.0       0.0       0.0      22.3
 0 C  dz2             0.0       0.0       0.0       0.0       1.4       0.3
 0 C  dyz             0.0       0.0       0.0       1.9       0.1       0.0
 0 C  dx2y2           0.0       0.0       0.0       0.0       0.5       1.0
 0 C  f0              0.0       0.7       0.0       0.0       0.0       0.0
 0 C  f-1             0.0       0.0       1.1       0.0       0.0       0.0
 0 C  f+2             0.0       0.4       0.0       0.0       0.0       0.0
 1 O  s               0.0       0.0       0.0       0.0       0.0       9.5
 1 O  px              0.0       0.0       0.0       0.0       0.0       6.5
 1 O  dz2             0.0       0.0       0.0       0.0       0.3       0.5
 1 O  dyz             0.0       0.0       0.0       0.3       0.0       0.0
 1 O  dx2y2           0.0       0.0       0.0       0.0       0.1       1.5
 1 O  f0             14.6      30.8       0.1       0.0       0.0       0.0
 1 O  f+1             0.0       0.0       0.0       0.9      29.5       7.5
 1 O  f-1            24.9       0.1      46.3       0.0       0.0       0.0
 1 O  f+2             8.8      18.5       0.0       0.0       0.0       0.0
 1 O  f-2             0.0       0.0       0.0      47.2       1.4       0.0
 1 O  f+3             0.0       0.0       0.0       0.5      17.7      12.6
 1 O  f-3             1.7       0.0       3.1       0.0       0.0       0.0
 2 O  s               0.0       0.0       0.0       0.0       0.0       9.5
 2 O  px              0.0       0.0       0.0       0.0       0.0       6.5
 2 O  dz2             0.0       0.0       0.0       0.0       0.3       0.5
 2 O  dyz             0.0       0.0       0.0       0.3       0.0       0.0
 2 O  dx2y2           0.0       0.0       0.0       0.0       0.1       1.5
 2 O  f0             14.6      30.8       0.1       0.0       0.0       0.0
 2 O  f+1             0.0       0.0       0.0       0.9      29.5       7.5
 2 O  f-1            24.9       0.1      46.3       0.0       0.0       0.0
 2 O  f+2             8.8      18.5       0.0       0.0       0.0       0.0
 2 O  f-2             0.0       0.0       0.0      47.2       1.4       0.0
 2 O  f+3             0.0       0.0       0.0       0.5      17.7      12.6
 2 O  f-3             1.7       0.0       3.1       0.0       0.0       0.0

                     96        97        98        99       100       101   
                   6.25831   6.25831   6.51157   6.60109   6.60109   6.90678
                   0.00000   0.00000   0.00000   0.00000   0.00000   0.00000
                  --------  --------  --------  --------  --------  --------
 0 C  px              0.0       0.0      11.0       0.0       0.0       0.0
 0 C  dxz             0.0       0.0       0.0      13.8       1.8       0.0
 0 C  dyz             0.0       0.0       0.0       0.0       0.0       0.2
 0 C  dxy             0.0       0.0       0.0       1.8      13.8       0.0
 0 C  f+1             0.1       5.8       0.0       0.0       0.0       0.0
 0 C  f-2             9.3       0.2       0.0       0.0       0.0       0.0
 0 C  f+3             0.1       3.5       0.0       0.0       0.0       0.0
 1 O  s               0.0       0.0       1.5       0.0       0.0       0.0
 1 O  pz              0.0       0.0       0.0       0.4       0.1       0.0
 1 O  px              0.0       0.0       1.8       0.0       0.0       0.0
 1 O  py              0.0       0.0       0.0       0.1       0.4       0.0
 1 O  dz2             0.1       4.2       3.4       0.0       0.0       1.3
 1 O  dxz             0.0       0.0       0.0      12.7       1.7       0.0
 1 O  dyz             5.6       0.1       0.0       0.0       0.0      47.8
 1 O  dx2y2           0.0       1.4      10.2       0.0       0.0       0.4
 1 O  dxy             0.0       0.0       0.0       1.7      12.7       0.0
 1 O  f0              0.0       0.0       0.0       9.1       1.2       0.0
 1 O  f+1             0.5      24.2      10.3       0.0       0.0       0.0
 1 O  f-1             0.0       0.0       0.0       0.2       1.5       0.0
 1 O  f+2             0.0       0.0       0.0      15.1       2.0       0.0
 1 O  f-2            38.7       0.8       0.0       0.0       0.0       0.3
 1 O  f+3             0.3      14.5      17.2       0.0       0.0       0.0
 1 O  f-3             0.0       0.0       0.0       3.0      22.6       0.0
 2 O  s               0.0       0.0       1.5       0.0       0.0       0.0
 2 O  pz              0.0       0.0       0.0       0.4       0.1       0.0
 2 O  px              0.0       0.0       1.8       0.0       0.0       0.0
 2 O  py              0.0       0.0       0.0       0.1       0.4       0.0
 2 O  dz2             0.1       4.2       3.4       0.0       0.0       1.3
 2 O  dxz             0.0       0.0       0.0      12.7       1.7       0.0
 2 O  dyz             5.6       0.1       0.0       0.0       0.0      47.8
 2 O  dx2y2           0.0       1.4      10.2       0.0       0.0       0.4
 2 O  dxy             0.0       0.0       0.0       1.7      12.7       0.0
 2 O  f0              0.0       0.0       0.0       9.1       1.2       0.0
 2 O  f+1             0.5      24.2      10.3       0.0       0.0       0.0
 2 O  f-1             0.0       0.0       0.0       0.2       1.5       0.0
 2 O  f+2             0.0       0.0       0.0      15.1       2.0       0.0
 2 O  f-2            38.7       0.8       0.0       0.0       0.0       0.3
 2 O  f+3             0.3      14.5      17.2       0.0       0.0       0.0
 2 O  f-3             0.0       0.0       0.0       3.0      22.6       0.0

                    102       103       104       105       106       107   
                   6.90678   6.92097   6.92097   6.98097   6.98097   7.29071
                   0.00000   0.00000   0.00000   0.00000   0.00000   0.00000
                  --------  --------  --------  --------  --------  --------
 0 C  pz              0.0       0.0       0.0       2.9       0.1       4.6
 0 C  py              0.0       0.0       0.0       0.1       2.9       1.3
 0 C  dz2             0.1       0.0       0.0       0.0       0.0       0.0
 0 C  f0              0.0       0.0       0.0       0.0       0.0       5.0
 0 C  f+1             0.0       0.0       0.8       0.0       0.0       0.0
 0 C  f-1             0.0       0.0       0.0       0.0       0.0       0.2
 0 C  f+2             0.0       0.0       0.0       0.1       0.0       8.3
 0 C  f-2             0.0       1.3       0.0       0.0       0.0       0.0
 0 C  f+3             0.0       0.0       0.5       0.0       0.0       0.0
 0 C  f-3             0.0       0.0       0.0       0.0       0.1       3.7
 1 O  pz              0.0       0.0       0.0       0.5       0.0       2.5
 1 O  py              0.0       0.0       0.0       0.0       0.5       0.7
 1 O  dz2            35.9       1.2      32.5       0.0       0.0       0.0
 1 O  dxz             0.0       0.0       0.0      32.1       1.6      12.5
 1 O  dyz             1.8      43.3       1.6       0.0       0.0       0.0
 1 O  dx2y2          12.0       0.4      10.8       0.0       0.0       0.0
 1 O  dxy             0.0       0.0       0.0       1.6      32.1       3.7
 1 O  f0              0.0       0.0       0.0       5.1       0.3       5.5
 1 O  f+1             0.2       0.1       2.7       0.0       0.0       0.0
 1 O  f-1             0.0       0.0       0.0       0.0       0.8       0.3
 1 O  f+2             0.0       0.0       0.0       8.4       0.4       9.2
 1 O  f-2             0.0       4.3       0.2       0.0       0.0       0.0
 1 O  f+3             0.1       0.1       1.6       0.0       0.0       0.0
 1 O  f-3             0.0       0.0       0.0       0.6      12.6       4.1
 2 O  pz              0.0       0.0       0.0       0.5       0.0       2.5
 2 O  py              0.0       0.0       0.0       0.0       0.5       0.7
 2 O  dz2            35.9       1.2      32.5       0.0       0.0       0.0
 2 O  dxz             0.0       0.0       0.0      32.1       1.6      12.5
 2 O  dyz             1.8      43.3       1.6       0.0       0.0       0.0
 2 O  dx2y2          12.0       0.4      10.8       0.0       0.0       0.0
 2 O  dxy             0.0       0.0       0.0       1.6      32.1       3.7
 2 O  f0              0.0       0.0       0.0       5.1       0.3       5.5
 2 O  f+1             0.2       0.1       2.7       0.0       0.0       0.0
 2 O  f-1             0.0       0.0       0.0       0.0       0.8       0.3
 2 O  f+2             0.0       0.0       0.0       8.4       0.4       9.2
 2 O  f-2             0.0       4.3       0.2       0.0       0.0       0.0
 2 O  f+3             0.1       0.1       1.6       0.0       0.0       0.0
 2 O  f-3             0.0       0.0       0.0       0.6      12.6       4.1

                    108       109       110       111       112       113   
                   7.29071   7.44005   7.59406   7.59406   7.98843   8.24143
                   0.00000   0.00000   0.00000   0.00000   0.00000   0.00000
                  --------  --------  --------  --------  --------  --------
 0 C  s               0.0       2.2       0.0       0.0       0.0      27.0
 0 C  pz              1.3       0.0       0.0       0.0       0.0       0.0
 0 C  px              0.0       0.0       0.0       0.0       7.4       0.0
 0 C  py              4.6       0.0       0.0       0.0       0.0       0.0
 0 C  dz2             0.0       0.9       0.0       0.0       0.0       2.4
 0 C  dxz             0.0       0.0       0.2       5.1       0.0       0.0
 0 C  dx2y2           0.0       2.7       0.0       0.0       0.0       7.2
 0 C  dxy             0.0       0.0       5.1       0.2       0.0       0.0
 0 C  f0              1.5       0.0       0.0       0.0       0.0       0.0
 0 C  f+1             0.0       0.0       0.0       0.0       2.1       0.0
 0 C  f-1             0.8       0.0       0.0       0.0       0.0       0.0
 0 C  f+2             2.5       0.0       0.0       0.0       0.0       0.0
 0 C  f+3             0.0       0.0       0.0       0.0       3.6       0.0
 0 C  f-3            12.5       0.0       0.0       0.0       0.0       0.0
 1 O  s               0.0       0.9       0.0       0.0       2.7       6.1
 1 O  pz              0.7       0.0       0.1       1.7       0.0       0.0
 1 O  px              0.0       0.6       0.0       0.0       3.0       7.6
 1 O  py              2.5       0.0       1.7       0.1       0.0       0.0
 1 O  dz2             0.0      10.9       0.0       0.0       8.0       0.7
 1 O  dxz             3.7       0.0       1.2      34.3       0.0       0.0
 1 O  dx2y2           0.0      32.6       0.0       0.0      24.0       2.1
 1 O  dxy            12.5       0.0      34.3       1.2       0.0       0.0
 1 O  f0              1.6       0.0       0.1       3.7       0.0       0.0
 1 O  f+1             0.0       0.8       0.0       0.0       2.1       5.8
 1 O  f-1             0.9       0.0       0.6       0.0       0.0       0.0
 1 O  f+2             2.7       0.0       0.2       6.1       0.0       0.0
 1 O  f+3             0.0       1.3       0.0       0.0       3.6       9.6
 1 O  f-3            13.8       0.0       9.2       0.3       0.0       0.0
 2 O  s               0.0       0.9       0.0       0.0       2.7       6.1
 2 O  pz              0.7       0.0       0.1       1.7       0.0       0.0
 2 O  px              0.0       0.6       0.0       0.0       3.0       7.6
 2 O  py              2.5       0.0       1.7       0.1       0.0       0.0
 2 O  dz2             0.0      10.9       0.0       0.0       8.0       0.7
 2 O  dxz             3.7       0.0       1.2      34.3       0.0       0.0
 2 O  dx2y2           0.0      32.6       0.0       0.0      24.0       2.1
 2 O  dxy            12.5       0.0      34.3       1.2       0.0       0.0
 2 O  f0              1.6       0.0       0.1       3.7       0.0       0.0
 2 O  f+1             0.0       0.8       0.0       0.0       2.1       5.8
 2 O  f-1             0.9       0.0       0.6       0.0       0.0       0.0
 2 O  f+2             2.7       0.0       0.2       6.1       0.0       0.0
 2 O  f+3             0.0       1.3       0.0       0.0       3.6       9.6
 2 O  f-3            13.8       0.0       9.2       0.3       0.0       0.0

                    114       115       116   
                  25.26686  45.53977  45.88183
                   0.00000   0.00000   0.00000
                  --------  --------  --------
 0 C  s              94.7       0.0       0.4
 0 C  px              0.0       0.1       0.0
 0 C  dz2             0.2       0.0       0.0
 0 C  dx2y2           0.5       0.0       0.0
 1 O  s               1.2      49.9      49.8
 1 O  px              0.9       0.0       0.0
 1 O  dx2y2           0.1       0.0       0.0
 2 O  s               1.2      49.9      49.8
 2 O  px              0.9       0.0       0.0
 2 O  dx2y2           0.1       0.0       0.0


                      *****************************
                      * MAYER POPULATION ANALYSIS *
                      *****************************

  NA   - Mulliken gross atomic population
  ZA   - Total nuclear charge
  QA   - Mulliken gross atomic charge
  VA   - Mayer's total valence
  BVA  - Mayer's bonded valence
  FA   - Mayer's free valence

  ATOM       NA         ZA         QA         VA         BVA        FA
  0 C      5.0957     6.0000     0.9043     3.9303     3.9303    -0.0000
  1 O      8.4521     8.0000    -0.4521     2.2073     2.2073    -0.0000
  2 O      8.4521     8.0000    -0.4521     2.2073     2.2073    -0.0000

  Mayer bond orders larger than 0.100000
B(  0-C ,  1-O ) :   1.9651 B(  0-C ,  2-O ) :   1.9651 B(  1-O ,  2-O ) :   0.2422 


-------
TIMINGS
-------

Total SCF time: 0 days 0 hours 0 min 2 sec 

Total time                  ....       2.930 sec
Sum of individual times     ....       2.979 sec  (101.7%)

SCF preparation             ....       0.184 sec  (  6.3%)
Fock matrix formation       ....       2.495 sec  ( 85.2%)
  Startup                   ....       0.009 sec  (  0.4% of F)
  Coulomb+Exchange Fock     ....       2.465 sec  ( 98.8% of F)
Diagonalization             ....       0.000 sec  (  0.0%)
Density matrix formation    ....       0.018 sec  (  0.6%)
Total Energy calculation    ....       0.012 sec  (  0.4%)
Population analysis         ....       0.025 sec  (  0.9%)
Orbital Transformation      ....       0.079 sec  (  2.7%)
Orbital Orthonormalization  ....       0.000 sec  (  0.0%)
DIIS solution               ....       0.146 sec  (  5.0%)
SOSCF solution              ....       0.019 sec  (  0.7%)
Finished LeanSCF after   2.9 sec

Maximum memory used throughout the entire LEANSCF-calculation: 12.9 MB

-------------------------   --------------------
FINAL SINGLE POINT ENERGY      -187.716166056445
-------------------------   --------------------



           ************************************************************
           *        Program running with 4 parallel MPI-processes     *
           *              working on a common directory               *
           ************************************************************

------------------------------------------------------------------------------
                              ORCA PROPERTY CALCULATIONS
------------------------------------------------------------------------------

GBWName                                 ... reference.hf.gbw
Number of atoms                         ...      3
Number of basis functions               ...    117
Max core memory                         ...   1024 MB

Electric properties:
Dipole moment                           ... YES
Quadrupole moment                       ...  NO
Static polarizability (Dipole/Dipole)   ...  NO
Static polarizability (Dipole/Quad.)    ...  NO
Static polarizability (Quad./Quad.)     ...  NO
Static polarizability (Velocity)        ...  NO

Atomic electric properties:
Dipole moment                           ...  NO
Quadrupole moment                       ...  NO
Static polarizability                   ...  NO

Choice of electric origin               ... Center of mass
Position of electric origin             ...     0.000000     0.000000     0.000000

General magnetic properties:
Magnetizability                         ...  NO

EPR properties:
g-Tensor (aka g-matrix)                 ...  NO
Zero-Field splitting spin-orbit         ...  NO
Zero-field splitting spin-spin          ...  NO
Hyperfine couplings                     ...  NO (   0 nuclei)
Quadrupole couplings                    ...  NO (   0 nuclei)
Contact density                         ...  NO (   0 nuclei)

NMR properties:
Chemical shifts                         ...  NO (   0 nuclei)
Spin-rotation constants                 ...  NO (   0 nuclei)
Spin-spin couplings                     ...  NO (   0 nuclei,    0 pairs)

Choice of magnetic origin               ... GIAO
Position of magnetic origin             ...     0.000000     0.000000     0.000000

Properties with geometric perturbations:
SCF Hessian                             ...  NO
IR spectrum                             ...  NO
VCD spectrum                            ...  NO
X-ray spectroscopy properties:
SCF XES/XAS/RIXS spectra                ...  NO


-------------
DIPOLE MOMENT
-------------

Method             : SCF
Type of density    : Electron Density
Multiplicity       :   1
Irrep              :   0
Energy             :  -187.7161660564451040 Eh
Relativity type    : 
Basis              : AO
                                X                 Y                 Z
Electronic contribution:     -0.000000000       0.000000000       0.000000000
Nuclear contribution   :      0.000000000       0.000000000       0.000000000
                        -----------------------------------------
Total Dipole Moment    :     -0.000000000       0.000000000       0.000000000
                        -----------------------------------------
Magnitude (a.u.)       :      0.000000000
Magnitude (Debye)      :      0.000000000



--------------------
Rotational spectrum 
--------------------
 
Rotational constants in cm-1:             0.000000             0.389506             0.389506 
Rotational constants in MHz :             0.000000         11677.109169         11677.109169 

Dipole components along the rotational axes: 
x,y,z [a.u.] :    -0.000000     0.000000     0.000000 
x,y,z [Debye]:    -0.000000     0.000000     0.000000 

 

Dipole moment calculation done in   0.0 sec 

Maximum memory used throughout the entire PROP-calculation: 3.9 MB

--------------------------------
SUGGESTED CITATIONS FOR THIS RUN
--------------------------------

Below you find a list of papers that are relevant to this ORCA run
We neither can nor want to force you to cite these papers, but we appreciate if you do
You receive ORCA, which is the product of decades of hard work by many enthusiastic individuals, for free
The only thing we kindly ask in return is that you cite our papers,
We deeply appreciate it, if you show your appreciation for ORCA by not just citing the generic ORCA reference.

Please note that relegating all ORCA citations to the supporting information does *not* help us.
SI sections are not indexed - citations you put there will not count into any citation statistics
But we need these citations in order to attract the funding resources that allow us to do what we are doing

Therefore, if you are a happy ORCA user, please consider citing a few of the papers listed below in the main body of your paper

In addition to the list printed below, the program has created the file reference.hf.bibtex that contains the list in bibtex format
You can import this file easily into all common literature databanks and citation aid programs


List of essential papers. We consider these as the minimum necessary citations

  1. Neese,F.
     Software update: the ORCA program system, version 5.0
     WIRES Comput. Molec. Sci., 2022 12(1)e1606
     doi.org/10.1002/wcms.1606

List of papers to cite with high priority. The work reported in these papers was absolutely
necessary for this run to complete.
Our perspective: the developers of density functionals and basis sets usually get cited in chemistry papers
Good! But without the algorithms to do something with them, the functionals or basis sets would not do anything.
Hence, in our opinion, the algorithm design and method developments papers are equally worthy of getting cited

  1. Neese,F.
     The SHARK Integral Generation and Digestion System
     J. Comp. Chem., 2022  1-16
     doi.org/10.1002/jcc.26942

List of suggested additional citations. These are papers that are important in the 'surrounding' of 
of this run, or papers that preceded the highly important papers. If you like your results we are grateful for a citation.

  1. Neese,F.
     The ORCA program system
     WIRES Comput. Molec. Sci., 2012 2(1)73-78
     doi.org/10.1002/wcms.81
  2. Neese,F.
     Software update: the ORCA program system, version 4.0
     WIRES Comput. Molec. Sci., 2018 8(1)1-6
     doi.org/10.1002/wcms.1327
  3. Neese,F.; Wennmohs,F.; Becker,U.; Riplinger,C.
     The ORCA quantum chemistry program package
     J. Chem. Phys., 2020 152 Art. No. L224108
     doi.org/10.1063/5.0004608

List of optional additional citations

  1. Neese,F.
     Approximate second-order SCF convergence for spin unrestricted wavefunctions
     Chem. Phys. Lett., 2000 325(1-3)93-98
     doi.org/10.1016/s0009-2614(00)00662-x

Timings for individual modules:

Sum of individual times          ...        4.653 sec (=   0.078 min)
Startup calculation              ...        0.580 sec (=   0.010 min)  12.5 %
SCF iterations                   ...        3.686 sec (=   0.061 min)  79.2 %
Property calculations            ...        0.386 sec (=   0.006 min)   8.3 %
                             ****ORCA TERMINATED NORMALLY****
TOTAL RUN TIME: 0 days 0 hours 0 minutes 5 seconds 211 msec
