
                                 *****************
                                 * O   R   C   A *
                                 *****************

                                            #,                                       
                                            ###                                      
                                            ####                                     
                                            #####                                    
                                            ######                                   
                                           ########,                                 
                                     ,,################,,,,,                         
                               ,,#################################,,                 
                          ,,##########################################,,             
                       ,#########################################, ''#####,          
                    ,#############################################,,   '####,        
                  ,##################################################,,,,####,       
                ,###########''''           ''''###############################       
              ,#####''   ,,,,##########,,,,          '''####'''          '####       
            ,##' ,,,,###########################,,,                        '##       
           ' ,,###''''                  '''############,,,                           
         ,,##''                                '''############,,,,        ,,,,,,###''
      ,#''                                            '''#######################'''  
     '                                                          ''''####''''         
             ,#######,   #######,   ,#######,      ##                                
            ,#'     '#,  ##    ##  ,#'     '#,    #''#        ,####,   ,####,        
            ##       ##  ##   ,#'  ##            #'  '#       #'       #'  '#        
            ##       ##  #######   ##           ,######,      #####,   #    #        
            '#,     ,#'  ##    ##  '#,     ,#' ,#      #,     #,   #   #,  ,#        
             '#######'   ##     ##  '#######'  #'      '#     '####' # '####'        



                #########################################################
                #                        -***-                          #
                #          Department of theory and spectroscopy        #
                #                                                       #
                #                      Frank Neese                      #
                #                                                       #
                #     Directorship, Architecture, Infrastructure        #
                #                    SHARK, DRIVERS                     #
                #        Core code/Algorithms in most modules           #
                #                                                       #
                #        Max Planck Institute fuer Kohlenforschung      #
                #                Kaiser Wilhelm Platz 1                 #
                #                 D-45470 Muelheim/Ruhr                 #
                #                      Germany                          #
                #                                                       #
                #                  All rights reserved                  #
                #                        -***-                          #
                #########################################################


                         Program Version 6.0.1  -  RELEASE   -


 With contributions from (in alphabetic order):
[Max-Planck-Institut fuer Kohlenforschung]                               
  Daniel Aravena         : Magnetic Suceptibility                        
  Michael Atanasov       : Ab Initio Ligand Field Theory (pilot matlab implementation)
  Alexander A. Auer      : GIAO ZORA, VPT2 properties, NMR spectrum      
  Ute Becker             : All parallelization in ORCA, NUMFREQ, NUMCALC 
  Giovanni Bistoni       : ED, misc. LED, open-shell LED, HFLD           
  Martin Brehm           : Molecular dynamics                            
  Dmytro Bykov           : pre 5.0 version of the SCF Hessian            
  Marcos Casanova-Páez   : Triplet and SCS-CIS(D). UHF-(DLPNO)-IP/EA/STEOM-CCSD. UHF-CVS-IP/STEOM-CCSD   
  Vijay G. Chilkuri      : MRCI spin determinant printing, contributions to CSF-ICE 
  Pauline Colinet        : FMM embedding                                 
  Dipayan Datta          : RHF DLPNO-CCSD density                        
  Achintya Kumar Dutta   : EOM-CC, STEOM-CC                              
  Nicolas Foglia         : Exact transition moments, OPA infrastructure, MCD improvements    
  Dmitry Ganyushin       : Spin-Orbit,Spin-Spin,Magnetic field MRCI      
  Miquel Garcia-Rates    : C-PCM and meta-GGA Hessian, CCSD/C-PCM, Gaussian charge scheme 
  Tiago L. C. Gouveia    : GS-ROHF, GS-ROCIS                             
  Yang Guo               : DLPNO-NEVPT2, F12-NEVPT2, CIM, IAO-localization        
  Andreas Hansen         : Spin unrestricted coupled pair/coupled cluster methods 
  Ingolf Harden          : AUTO-CI MPn and infrastructure                
  Benjamin Helmich-Paris : MC-RPA, TRAH-(SCF,CASSCF), AVAS, COSX integrals, SCF dyn. polar. 
  Lee Huntington         : MR-EOM, pCC                                   
  Robert Izsak           : Overlap fitted RIJCOSX, COSX-SCS-MP3, EOM     
  Riya Kayal             : Wick's Theorem for AUTO-CI, AUTO-CI UHF-CCSDT 
  Emily Kempfer          : AUTO-CI, RHF CISDT and CCSDT                  
  Christian Kollmar      : KDIIS, OOCD, Brueckner-CCSD(T), CCSD density, CASPT2, CASPT2-K, improved NEVPT2 
  Axel Koslowski         : Symmetry handling                             
  Simone Kossmann        : meta-GGA functionals, TD-DFT gradient, OOMP2, (MP2 Hessian; deprecated post 5.0) 
  Lucas Lang             : DCDCAS                                        
  Marvin Lechner         : AUTO-CI (C++ implementation), FIC-MRCC        
  Spencer Leger          : CASSCF response                               
  Dagmar Lenk            : GEPOL surface, SMD, ORCA-2-JSON               
  Dimitrios Liakos       : Extrapolation schemes; Compound Job, initial MDCI parallelization 
  Dimitrios Manganas     : Further ROCIS development; embedding schemes. LFT, Crystal Embedding 
  Dimitrios Pantazis     : SARC Basis sets                               
  Anastasios Papadopoulos: AUTO-CI, single reference methods and gradients 
  Taras Petrenko         : pre 6.0 DFT Hessian and TD-DFT gradient, (ASA, deprecated), ECA, 1-Electron XAS/XES, NRVS 
  Peter Pinski           : DLPNO-MP2, DLPNO-MP2 Gradient                 
  Christoph Reimann      : Effective Core Potentials                     
  Marius Retegan         : Local ZFS, SOC                                
  Christoph Riplinger    : Optimizer, TS searches, QM/MM, DLPNO-CCSD(T), (RO)-DLPNO pert. Triples 
  Michael Roemelt        : Original ROCIS implementation                 
  Masaaki Saitow         : Open-shell DLPNO-CCSD energy and density      
  Barbara Sandhoefer     : DKH picture change effects                    
  Kantharuban Sivalingam : CASSCF convergence/infrastructure, NEVPT2 and variants, FIC-MRCI 
  Bernardo de Souza      : ESD, SOC TD-DFT                               
  Georgi L. Stoychev     : AutoAux, RI-MP2 NMR, DLPNO-MP2 response, X2C  
  Van Anh Tran           : RI-MP2 g-tensors                              
  Willem Van den Heuvel  : Paramagnetic NMR                              
  Zikuan Wang            : NOTCH, Electric field optimization            
  Frank Wennmohs         : Technical directorship and infrastructure     
  Hang Xu                : AUTO-CI-Response properties                   
                                                                         
[FACCTs GmbH]                                                            
  Markus Bursch, Miquel Garcia-Rates, Christoph Riplinger, Bernardo de Souza, Georgi L. Stoychev 
                                                                 
  APM, Basis sets (HGBS, AHGBS, def-TZVP (Ac-Lr), def2-XVPD (La-Lu)), CI-OPT, improved COSX, DLPNO-Multilevel,           
  DOCKER, DRACO, updates on ESD, GOAT, IRC, LR-CPCM, MBIS, meta-GGA TD-DFT gradient, ML-optimized integration grids, 
  MM, NACMEs, nearIR, NEB, NEB-TS, NL-DFT gradient (VV10), 2- and 3-layer-ONIOM, interface openCOSMO-RS, QMMM,   
  Crystal-QMMM, SF, symmetry and pop. for TD-DFT, r2SCAN hybrids, SOLVATOR                                   
                                                                         
[Other institutions]                                                     
  V. Asgeirsson          : NEB                                           
  Christoph Bannwarth    : sTDA-DFT, sTD-DFT, PBEh-3c, B97-3c, D3        
  Sebastian Ehlert       : rSCAN, r2SCAN, r2SCAN-3c, D4, dhf basis sets  
  Marvin Friede          : D4 for Fr, Ra, Ac-Lr                          
  Lars Goerigk           : TD-DFT with DH, B97 family of functionals     
  Stefan Grimme          : VdW corrections, initial TS optimization, DFT functionals, gCP, sTDA/sTD-DF 
  Waldemar Hujo          : DFT-NL                                        
  H. Jonsson             : NEB                                           
  Holger Kruse           : gCP                                           
  Marcel Mueller         : wB97X-3c, vDZP basis set                      
  Hagen Neugebauer       : wr2SCAN                                       
  Tobias Risthaus        : range-separated hybrid DFT                    
  Lukas Wittmann         : regularized MP2, r2SCAN double-hybrids, wr2SCAN        
                                                                         
We gratefully acknowledge several colleagues who have allowed us to      
interface, adapt or use parts of their codes:                            
  Ed Valeev, F. Pavosevic, A. Kumar             : LibInt (2-el integral package), F12 methods 
  Garnet Chan, S. Sharma, J. Yang, R. Olivares  : DMRG                   
  Ulf Ekstrom                                   : XCFun DFT Library      
  Mihaly Kallay                                 : mrcc  (arbitrary order and MRCC methods)
  Frank Weinhold                                : gennbo (NPA and NBO analysis)           
  Simon Mueller                                 : openCOSMO-RS                            
  Christopher J. Cramer and Donald G. Truhlar   : smd solvation model                     
  S Lehtola, MJT Oliveira, MAL Marques          : LibXC Library                           
  Liviu Ungur et al                             : ANISO software                          


 Your calculation uses the libint2 library for the computation of 2-el integrals
 For citations please refer to: http://libint.valeyev.net

 Your ORCA version has been built with support for libXC version: 6.2.2
 For citations please refer to: https://libxc.gitlab.io

 This ORCA versions uses:
   CBLAS   interface :  Fast vector & matrix operations
   LAPACKE interface :  Fast linear algebra routines
   SCALAPACK package :  Parallel linear algebra routines
   Shared memory     :  Shared parallel matrices
   BLAS/LAPACK       :  OpenBLAS 0.3.27  USE64BITINT DYNAMIC_ARCH NO_AFFINITY SkylakeX SINGLE_THREADED
        Core in use  :  SkylakeX
   Copyright (c) 2011-2014, The OpenBLAS Project


XCFun DFT library Copyright 2009-2010 Ulf Ekstrom and contributors.
See http://admol.org/xcfun for more information.
This is free software; see the source code for copying conditions.
There is ABSOLUTELY NO WARRANTY; not even for MERCHANTABILITY or FITNESS FOR A PARTICULAR PURPOSE.
For details see the documentation.
Scientific users of this library should cite U. Ekstrom, L. Visscher, R. Bast, A. J. Thorvaldsen and K. Ruud;
J.Chem.Theor.Comp. 2010, DOI: 10.1021/ct100117s
XCFun Version 0.99 

================================================================================

----- Orbital basis set information -----
Your calculation utilizes the basis: def2-TZVPD
   F. Weigend and R. Ahlrichs, Phys. Chem. Chem. Phys. 7, 3297 (2005).
   D. Rappoport and F. Furche, J. Chem. Phys. 133, 134105 (2010)
   D. Rappoport, J. Chem. Phys. 155, 124102 (2021).

----- AuxJ basis set information -----
Your calculation utilizes the auxiliary basis: def2/J
   F. Weigend, Phys. Chem. Chem. Phys. 8, 1057 (2006).

================================================================================
                                        WARNINGS
                       Please study these warnings very carefully!
================================================================================


================================================================================
                                       INPUT FILE
================================================================================
NAME = reference.wb97x.inp
|  1> ! wB97x def2-TZVPD def2/J
|  2> 
|  3> %pal nprocs 4 end
|  4> 
|  5> %output Print[P_ReducedOrbPopMO_L] 1 end
|  6> 
|  7> * xyz 0 1
|  8>   C       0.000    0.000    0.000
|  9>   O       1.163    0.000    0.000
| 10>   O      -1.163    0.000    0.000
| 11> *
| 12> 
| 13>                          ****END OF INPUT****
================================================================================

                       ****************************
                       * Single Point Calculation *
                       ****************************

---------------------------------
CARTESIAN COORDINATES (ANGSTROEM)
---------------------------------
  C      0.000000    0.000000    0.000000
  O      1.163000    0.000000    0.000000
  O     -1.163000    0.000000    0.000000

----------------------------
CARTESIAN COORDINATES (A.U.)
----------------------------
  NO LB      ZA    FRAG     MASS         X           Y           Z
   0 C     6.0000    0    12.011    0.000000    0.000000    0.000000
   1 O     8.0000    0    15.999    2.197751    0.000000    0.000000
   2 O     8.0000    0    15.999   -2.197751    0.000000    0.000000

--------------------------------
INTERNAL COORDINATES (ANGSTROEM)
--------------------------------
 C      0   0   0     0.000000000000     0.00000000     0.00000000
 O      1   0   0     1.163000000000     0.00000000     0.00000000
 O      1   2   0     1.163000000000   180.00000000     0.00000000

---------------------------
INTERNAL COORDINATES (A.U.)
---------------------------
 C      0   0   0     0.000000000000     0.00000000     0.00000000
 O      1   0   0     2.197751493750     0.00000000     0.00000000
 O      1   2   0     2.197751493750   180.00000000     0.00000000

---------------------
BASIS SET INFORMATION
---------------------
There are 2 groups of distinct atoms

 Group   1 Type C   : 12s6p3d1f contracted to 6s3p3d1f pattern {621111/411/111/1}
 Group   2 Type O   : 12s7p3d1f contracted to 6s4p3d1f pattern {621111/4111/111/1}

Atom   0C    basis set group =>   1
Atom   1O    basis set group =>   2
Atom   2O    basis set group =>   2
---------------------------------
AUXILIARY/J BASIS SET INFORMATION
---------------------------------
There are 2 groups of distinct atoms

 Group   1 Type C   : 12s5p4d2f1g contracted to 6s4p3d1f1g pattern {711111/2111/211/2/1}
 Group   2 Type O   : 12s5p4d2f1g contracted to 6s4p3d1f1g pattern {711111/2111/211/2/1}

Atom   0C    basis set group =>   1
Atom   1O    basis set group =>   2
Atom   2O    basis set group =>   2


           ************************************************************
           *        Program running with 4 parallel MPI-processes     *
           *              working on a common directory               *
           ************************************************************
------------------------------------------------------------------------------
                             ORCA STARTUP CALCULATIONS
                           -- RI-GTO INTEGRALS CHOSEN --
------------------------------------------------------------------------------
------------------------------------------------------------------------------
                   ___                                                        
                  /   \      - P O W E R E D   B Y -                         
                 /     \                                                     
                 |  |  |   _    _      __       _____    __    __             
                 |  |  |  | |  | |    /  \     |  _  \  |  |  /  |          
                  \  \/   | |  | |   /    \    | | | |  |  | /  /          
                 / \  \   | |__| |  /  /\  \   | |_| |  |  |/  /          
                |  |  |   |  __  | /  /__\  \  |    /   |      \           
                |  |  |   | |  | | |   __   |  |    \   |  |\   \          
                \     /   | |  | | |  |  |  |  | |\  \  |  | \   \       
                 \___/    |_|  |_| |__|  |__|  |_| \__\ |__|  \__/        
                                                                              
                      - O R C A' S   B I G   F R I E N D -                    
                                      &                                       
                       - I N T E G R A L  F E E D E R -                       
                                                                              
 v1 FN, 2020, v2 2021, v3 2022-2024                                           
------------------------------------------------------------------------------


----------------------
SHARK INTEGRAL PACKAGE
----------------------

Number of atoms                             ...      3
Number of basis functions                   ...    117
Number of shells                            ...     41
Maximum angular momentum                    ...      3
Integral batch strategy                     ... SHARK/LIBINT Hybrid
RI-J (if used) integral strategy            ... SPLIT-RIJ (Revised 2003 algorithm where possible)
Printlevel                                  ...      1
Contraction scheme used                     ... SEGMENTED contraction
Prescreening option                         ... SCHWARTZ
   Thresh                                   ... 1.000e-10
   Tcut                                     ... 1.000e-11
   Tpresel                                  ... 1.000e-11 
Coulomb Range Separation                    ... NOT USED
Exchange Range Separation                   ... Long Range
   Mu parameter                             ... 3.000e-01
   Scaling (regular/separated)              ... 1.577e-01 8.423e-01
Multipole approximations                    ... NOT USED
Finite Nucleus Model                        ... NOT USED
CABS basis                                  ... NOT available
Auxiliary Coulomb fitting basis             ... AVAILABLE
   # of basis functions in Aux-J            ...    147
   # of shells in Aux-J                     ...     45
   Maximum angular momentum in Aux-J        ...      4
Auxiliary J/K fitting basis                 ... NOT available
Auxiliary Correlation fitting basis         ... NOT available
Auxiliary 'external' fitting basis          ... NOT available

Checking pre-screening integrals            ... done (  0.0 sec) Dimension = 41
Check shell pair data                       ... done (  0.0 sec)
Shell pair information
Shell pair cut-off parameter TPreSel        ...   1.0e-11
Total number of shell pairs                 ...       861
Shell pairs after pre-screening             ...       849
Total number of primitive shell pairs       ...      2412
Primitive shell pairs kept                  ...      2113
          la=0 lb=0:    165 shell pairs
          la=1 lb=0:    196 shell pairs
          la=1 lb=1:     66 shell pairs
          la=2 lb=0:    158 shell pairs
          la=2 lb=1:     99 shell pairs
          la=2 lb=2:     45 shell pairs
          la=3 lb=0:     54 shell pairs
          la=3 lb=1:     33 shell pairs
          la=3 lb=2:     27 shell pairs
          la=3 lb=3:      6 shell pairs

Calculating one electron integrals          ... done (  0.0 sec)
Calculating RI/J V-Matrix + Cholesky decomp.... done (  0.1 sec)
Calculating Nuclear repulsion               ... done (  0.0 sec) ENN=     58.241343647807 Eh

Diagonalization of the overlap matrix:
Smallest eigenvalue                        ... 1.018e-04
Time for diagonalization                   ...    0.002 sec
Threshold for overlap eigenvalues          ... 1.000e-07
Number of eigenvalues below threshold      ... 0
Time for construction of square roots      ...    0.001 sec
Total time needed                          ...    0.004 sec

-------------------
DFT GRID GENERATION
-------------------

General Integration Accuracy     IntAcc      ... 4.388
Radial Grid Type                 RadialGrid  ... OptM3 with GC (2021)
Angular Grid (max. ang.)         AngularGrid ... 4 (Lebedev-302)
Angular grid pruning method      GridPruning ... 4 (adaptive)
Weight generation scheme         WeightScheme... mBecke (2022)
Basis function cutoff            BFCut       ... 1.0000e-10
Integration weight cutoff        WCut        ... 1.0000e-14
Partially contracted basis set               ... off
Rotationally invariant grid construction     ... off
Angular grids for H and He will be reduced by one unit
Diffuse basis detected: some atoms will have their outermost
                        angular grid increased by 1.

Total number of grid points                  ...    19300
Total number of batches                      ...      302
Average number of points per batch           ...       63
Average number of grid points per atom       ...     6433

--------------------
COSX GRID GENERATION
--------------------

GRIDX 1
-------
General Integration Accuracy     IntAcc      ... 3.816
Radial Grid Type                 RadialGrid  ... OptM3 with GC (2021)
Angular Grid (max. ang.)         AngularGrid ... 1 (Lebedev-50)
Angular grid pruning method      GridPruning ... 4 (adaptive)
Weight generation scheme         WeightScheme... mBecke (2022)
Basis function cutoff            BFCut       ... 1.0000e-10
Integration weight cutoff        WCut        ... 1.0000e-14
Partially contracted basis set               ... on
Rotationally invariant grid construction     ... off
Angular grids for H and He will be reduced by one unit
Diffuse basis detected: some atoms will have their outermost
                        angular grid increased by 1.

Total number of grid points                  ...     2436
Total number of batches                      ...       20
Average number of points per batch           ...      121
Average number of grid points per atom       ...      812
UseSFitting                                  ... on

GRIDX 2
-------
General Integration Accuracy     IntAcc      ... 4.020
Radial Grid Type                 RadialGrid  ... OptM3 with GC (2021)
Angular Grid (max. ang.)         AngularGrid ... 2 (Lebedev-110)
Angular grid pruning method      GridPruning ... 4 (adaptive)
Weight generation scheme         WeightScheme... mBecke (2022)
Basis function cutoff            BFCut       ... 1.0000e-10
Integration weight cutoff        WCut        ... 1.0000e-14
Partially contracted basis set               ... on
Rotationally invariant grid construction     ... off
Angular grids for H and He will be reduced by one unit
Diffuse basis detected: some atoms will have their outermost
                        angular grid increased by 1.

Total number of grid points                  ...     6852
Total number of batches                      ...       54
Average number of points per batch           ...      126
Average number of grid points per atom       ...     2284
UseSFitting                                  ... on

GRIDX 3
-------
General Integration Accuracy     IntAcc      ... 4.338
Radial Grid Type                 RadialGrid  ... OptM3 with GC (2021)
Angular Grid (max. ang.)         AngularGrid ... 3 (Lebedev-194)
Angular grid pruning method      GridPruning ... 4 (adaptive)
Weight generation scheme         WeightScheme... mBecke (2022)
Basis function cutoff            BFCut       ... 1.0000e-10
Integration weight cutoff        WCut        ... 1.0000e-14
Partially contracted basis set               ... on
Rotationally invariant grid construction     ... off
Angular grids for H and He will be reduced by one unit
Diffuse basis detected: some atoms will have their outermost
                        angular grid increased by 1.

Total number of grid points                  ...    14798
Total number of batches                      ...      116
Average number of points per batch           ...      127
Average number of grid points per atom       ...     4933
UseSFitting                                  ... on
Initializing property integral containers    ... done (  0.0 sec)

SHARK setup successfully completed in   0.5 seconds

Maximum memory used throughout the entire STARTUP-calculation: 13.8 MB


           ************************************************************
           *        Program running with 4 parallel MPI-processes     *
           *              working on a common directory               *
           ************************************************************
-------------------------------------------------------------------------------
                                 ORCA GUESS
                   Start orbitals & Density for SCF / CASSCF
-------------------------------------------------------------------------------

------------
SCF SETTINGS
------------
Hamiltonian:
 Density Functional     Method          .... DFT(GTOs)
 Exchange Functional    Exchange        .... WB97X
 Correlation Functional Correlation     .... WB97X
 Gradients option       PostSCFGGA      .... off
 Hybrid DFT is turned on
   Fraction HF Exchange ScalHFX         ....  0.157706
   Scaling of DF-GGA-X  ScalDFX         ....  0.000000
   Scaling of DF-GGA-C  ScalDFC         ....  1.000000
   Scaling of DF-LDA-C  ScalLDAC        ....  1.000000
   Perturbative correction              ....  0.000000
 Long-range corrected/Screened/Range-Separated Hybrid DFT is turned on
   Amount of maximum screened exact exchange              ....  0.842294
   Range separation parameter mu (erf(mu*r12)/r12)        ....  0.300000
 RI-approximation to the Coulomb term is turned on
   Number of AuxJ basis functions       .... 147
   RIJ-COSX (HFX calculated with COS-X)).... on


General Settings:
 Integral files         IntName         .... reference.wb97x
 Hartree-Fock type      HFTyp           .... RHF
 Total Charge           Charge          ....    0
 Multiplicity           Mult            ....    1
 Number of Electrons    NEL             ....   22
 Basis Dimension        Dim             ....  117
 Nuclear Repulsion      ENuc            ....     58.2413436478 Eh

Convergence Acceleration:
 AO-DIIS                CNVDIIS         .... on
   Start iteration      DIISMaxIt       ....    12
   Startup error        DIISStart       ....  0.200000
   # of expansion vecs  DIISMaxEq       ....     5
   Bias factor          DIISBfac        ....   1.050
   Max. coefficient     DIISMaxC        ....  10.000
 MO-DIIS                CNVKDIIS        .... off
 Trust-Rad. Augm. Hess. CNVTRAH         .... auto
   Auto Start mean grad. ratio tolernc. ....  1.125000
   Auto Start start iteration           ....    50
   Auto Start num. interpolation iter.  ....    10
   Max. Number of Micro iterations      ....    24
   Max. Number of Macro iterations      .... Maxiter - #DIIS iter
   Number of Davidson start vectors     ....     2
   Converg. threshold    (grad. norm)   ....   5.000e-05
   Grad. Scal. Fac. for Micro threshold ....   0.100
   Minimum threshold for Micro iter.    ....   1.000e-02
   NR start threshold (gradient norm)   ....   1.000e-04
   Initial trust radius                 ....   0.400
   Minimum AH scaling param. (alpha)    ....   1.000
   Maximum AH scaling param. (alpha)    .... 1000.000
   Quad. conv. algorithm                .... NR
   White noise on init. David. guess    .... on
   Maximum white noise                  ....   0.010
   Pseudo random numbers                .... off
   Inactive MOs                         .... canonical
   Orbital update algorithm             .... Taylor
   Preconditioner                       .... Diag
   Full preconditioner red. dimension   ....   250
 SOSCF                  CNVSOSCF        .... on
   Start iteration      SOSCFMaxIt      ....   150
   Startup grad/error   SOSCFStart      ....  0.003300
   Hessian update       SOSCFHessUp     .... L-BFGS
 Level Shifting         CNVShift        .... on
   Level shift para.    LevelShift      ....    0.2500
   Turn off err/grad.   ShiftErr        ....    0.0010
 Zerner damping         CNVZerner       .... off
 Static damping         CNVDamp         .... on
   Fraction old density DampFac         ....    0.7000
   Max. Damping (<1)    DampMax         ....    0.9800
   Min. Damping (>=0)   DampMin         ....    0.0000
   Turn off err/grad.   DampErr         ....    0.1000

SCF Procedure:
 Maximum # iterations   MaxIter         ....   125
 SCF integral mode      SCFMode         .... Direct
   Integral package                     .... SHARK and LIBINT hybrid scheme
 Reset frequency        DirectResetFreq ....    20
 Integral Threshold     Thresh          ....  1.000e-10 Eh
 Primitive CutOff       TCut            ....  1.000e-11 Eh

Convergence Tolerance:
 Convergence Check Mode ConvCheckMode   .... Total+1el-Energy
 Convergence forced     ConvForced      .... 0
 Energy Change          TolE            ....  1.000e-06 Eh
 1-El. energy change                    ....  1.000e-03 Eh
 Orbital Gradient       TolG            ....  5.000e-05
 Orbital Rotation angle TolX            ....  5.000e-05
 DIIS Error             TolErr          ....  1.000e-06

------------------------------
INITIAL GUESS: MODEL POTENTIAL
------------------------------
Loading Hartree-Fock densities                     ... done
Calculating cut-offs                               ... done
Initializing the effective Hamiltonian             ... done
Setting up the integral package (SHARK)            ... done
Starting the Coulomb interaction                   ... done (   0.0 sec)
Making the grid                                    ... done (   0.1 sec)
Mapping shells                                     ... done
Starting the XC term evaluation                    ... done (   0.0 sec)
  promolecular density results
     # of electrons  =     22.000071022
     EX              =    -21.386356876
     EC              =     -0.731521884
     EX+EC           =    -22.117878760
Transforming the Hamiltonian                       ... done (   0.0 sec)
Diagonalizing the Hamiltonian                      ... done (   0.0 sec)
Back transforming the eigenvectors                 ... done (   0.0 sec)
Now organizing SCF variables                       ... done
                      ------------------
                      INITIAL GUESS DONE (   0.1 sec)
                      ------------------
             **** ENERGY FILE WAS UPDATED (reference.wb97x.en.tmp) ****
Finished Guess after   0.3 sec
Maximum memory used throughout the entire GUESS-calculation: 8.4 MB


           ************************************************************
           *        Program running with 4 parallel MPI-processes     *
           *              working on a common directory               *
           ************************************************************

-------------------------------------------------------------------------------------------
                                      ORCA LEAN-SCF
                              memory conserving SCF solver
-------------------------------------------------------------------------------------------

----------------------------------------D-I-I-S--------------------------------------------
Iteration    Energy (Eh)           Delta-E    RMSDP     MaxDP     DIISErr   Damp  Time(sec)
-------------------------------------------------------------------------------------------
               ***  Starting incremental Fock matrix formation  ***
    1    -188.5219720969209902     0.00e+00  2.01e-03  4.25e-02  2.09e-01  0.700   0.6
    2    -188.5678056628937043    -4.58e-02  1.27e-03  2.77e-02  1.02e-01  0.700   0.3
                               ***Turning on AO-DIIS***
    3    -188.5856331759661089    -1.78e-02  5.21e-04  1.06e-02  3.89e-02  0.700   0.3
    4    -188.5964567179810842    -1.08e-02  1.00e-03  1.88e-02  2.23e-02  0.000   0.2
                              *** Initializing SOSCF ***
---------------------------------------S-O-S-C-F--------------------------------------
Iteration    Energy (Eh)           Delta-E    RMSDP     MaxDP     MaxGrad    Time(sec)
--------------------------------------------------------------------------------------
    5    -188.6205210785792588    -2.41e-02  1.16e-04  4.09e-03  1.76e-03     0.2
               *** Restarting incremental Fock matrix formation ***
    6    -188.6205546313138370    -3.36e-05  2.55e-05  3.04e-04  2.94e-04     0.4
    7    -188.6205561118792389    -1.48e-06  1.12e-05  1.57e-04  1.52e-04     0.4
    8    -188.6205562657562496    -1.54e-07  6.28e-06  1.12e-04  1.12e-04     0.4
                 **** Energy Check signals convergence ****

               *****************************************************
               *                     SUCCESS                       *
               *           SCF CONVERGED AFTER   8 CYCLES          *
               *****************************************************

Recomputing exchange energy using gridx3       ... done (    0.578 sec)
Old exchange energy                            :     -6.360352540 Eh
New exchange energy                            :     -6.360353062 Eh
Exchange energy change after final integration :     -0.000000522 Eh
Total energy after final integration           :   -188.620556787 Eh
             **** ENERGY FILE WAS UPDATED (reference.wb97x.en.tmp) ****

----------------
TOTAL SCF ENERGY
----------------

Total Energy       :       -188.62055678737093 Eh           -5132.62629 eV

Components:
Nuclear Repulsion  :         58.24134364780740 Eh            1584.82753 eV
Electronic Energy  :       -246.86189991356366 Eh           -6717.45381 eV
One Electron Energy:       -372.61670543674620 Eh          -10139.41603 eV
Two Electron Energy:        125.75480552318254 Eh            3421.96223 eV

Virial components:
Potential Energy   :       -376.59865220675442 Eh          -10247.77031 eV
Kinetic Energy     :        187.97809541938352 Eh            5115.14403 eV
Virial Ratio       :          2.00341774591637

DFT components:
N(Alpha)           :       10.999978560173 electrons
N(Beta)            :       10.999978560173 electrons
N(Total)           :       21.999957120347 electrons
E(XC)              :      -16.162587896243 Eh       

---------------
SCF CONVERGENCE
---------------

  Last Energy change         ...    1.5388e-07  Tolerance :   1.0000e-06
  Last MAX-Density change    ...    1.1152e-04  Tolerance :   1.0000e-05
  Last RMS-Density change    ...    6.2765e-06  Tolerance :   1.0000e-06
  Last DIIS Error            ...    1.7587e-03  Tolerance :   1.0000e-06
  Last Orbital Gradient      ...    1.1225e-04  Tolerance :   5.0000e-05
  Last Orbital Rotation      ...    9.1012e-05  Tolerance :   5.0000e-05


----------------
ORBITAL ENERGIES
----------------

  NO   OCC          E(Eh)            E(eV) 
   0   2.0000     -19.279898      -524.6327 
   1   2.0000     -19.279880      -524.6322 
   2   2.0000     -10.452408      -284.4245 
   3   2.0000      -1.294744       -35.2318 
   4   2.0000      -1.250785       -34.0356 
   5   2.0000      -0.685656       -18.6576 
   6   2.0000      -0.640639       -17.4327 
   7   2.0000      -0.640639       -17.4327 
   8   2.0000      -0.638701       -17.3799 
   9   2.0000      -0.483177       -13.1479 
  10   2.0000      -0.483177       -13.1479 
  11   0.0000       0.049746         1.3536 
  12   0.0000       0.106198         2.8898 
  13   0.0000       0.114681         3.1206 
  14   0.0000       0.114681         3.1206 
  15   0.0000       0.123436         3.3589 
  16   0.0000       0.123436         3.3589 
  17   0.0000       0.135673         3.6919 
  18   0.0000       0.152389         4.1467 
  19   0.0000       0.152389         4.1467 
  20   0.0000       0.181375         4.9355 
  21   0.0000       0.257085         6.9956 
*Only the first 10 virtual orbitals were printed.

                    ********************************
                    * MULLIKEN POPULATION ANALYSIS *
                    ********************************

-----------------------
MULLIKEN ATOMIC CHARGES
-----------------------
   0 C :    0.814962
   1 O :   -0.407480
   2 O :   -0.407482
Sum of atomic charges:    0.0000000

--------------------------------
MULLIKEN REDUCED ORBITAL CHARGES
--------------------------------
  0 C s       :     2.689635  s :     2.689635
      pz      :     0.727126  p :     2.253079
      px      :     0.798827
      py      :     0.727126
      dz2     :    -0.002423  d :     0.206034
      dxz     :     0.107864
      dyz     :    -0.000000
      dx2y2   :    -0.007270
      dxy     :     0.107864
      f0      :     0.005031  f :     0.036290
      f+1     :     0.003547
      f-1     :     0.000839
      f+2     :     0.008385
      f-2     :    -0.000000
      f+3     :     0.005912
      f-3     :     0.012577

  1 O s       :     3.986970  s :     3.986970
      pz      :     1.562034  p :     4.375041
      px      :     1.250974
      py      :     1.562033
      dz2     :     0.004372  d :     0.043826
      dxz     :     0.013170
      dyz     :     0.000000
      dx2y2   :     0.013115
      dxy     :     0.013170
      f0      :     0.000223  f :     0.001643
      f+1     :     0.000170
      f-1     :     0.000037
      f+2     :     0.000371
      f-2     :     0.000000
      f+3     :     0.000284
      f-3     :     0.000557

  2 O s       :     3.986973  s :     3.986973
      pz      :     1.562034  p :     4.375040
      px      :     1.250973
      py      :     1.562033
      dz2     :     0.004372  d :     0.043826
      dxz     :     0.013170
      dyz     :     0.000000
      dx2y2   :     0.013115
      dxy     :     0.013170
      f0      :     0.000223  f :     0.001643
      f+1     :     0.000170
      f-1     :     0.000037
      f+2     :     0.000371
      f-2     :     0.000000
      f+3     :     0.000284
      f-3     :     0.000557



                     *******************************
                     * LOEWDIN POPULATION ANALYSIS *
                     *******************************

----------------------
LOEWDIN ATOMIC CHARGES
----------------------
   0 C :   -0.394960
   1 O :    0.197480
   2 O :    0.197480

-------------------------------
LOEWDIN REDUCED ORBITAL CHARGES
-------------------------------
  0 C s       :     2.685672  s :     2.685672
      pz      :     0.689460  p :     2.434264
      px      :     1.055343
      py      :     0.689461
      dz2     :     0.093571  d :     1.144912
      dxz     :     0.385313
      dyz     :     0.000000
      dx2y2   :     0.280714
      dxy     :     0.385313
      f0      :     0.015230  f :     0.130113
      f+1     :     0.018332
      f-1     :     0.002538
      f+2     :     0.025384
      f-2     :     0.000000
      f+3     :     0.030553
      f-3     :     0.038076

  1 O s       :     3.355392  s :     3.355392
      pz      :     1.395216  p :     4.262732
      px      :     1.472299
      py      :     1.395216
      dz2     :     0.021675  d :     0.177823
      dxz     :     0.045561
      dyz     :     0.000000
      dx2y2   :     0.065026
      dxy     :     0.045561
      f0      :     0.000573  f :     0.006573
      f+1     :     0.001318
      f-1     :     0.000096
      f+2     :     0.000955
      f-2     :     0.000000
      f+3     :     0.002197
      f-3     :     0.001433

  2 O s       :     3.355393  s :     3.355393
      pz      :     1.395217  p :     4.262732
      px      :     1.472299
      py      :     1.395216
      dz2     :     0.021675  d :     0.177823
      dxz     :     0.045561
      dyz     :     0.000000
      dx2y2   :     0.065026
      dxy     :     0.045561
      f0      :     0.000573  f :     0.006573
      f+1     :     0.001318
      f-1     :     0.000096
      f+2     :     0.000955
      f-2     :     0.000000
      f+3     :     0.002197
      f-3     :     0.001433


------------------------------------------
LOEWDIN REDUCED ORBITAL POPULATIONS PER MO
-------------------------------------------
THRESHOLD FOR PRINTING IS 0.1%%
                      0         1         2         3         4         5   
                 -19.27990 -19.27988 -10.45241  -1.29474  -1.25078  -0.68566
                   2.00000   2.00000   2.00000   2.00000   2.00000   2.00000
                  --------  --------  --------  --------  --------  --------
 0 C  s               0.0       0.0      98.2      26.6       0.0       9.4
 0 C  px              0.2       0.0       0.0       0.0      38.8       0.0
 0 C  dz2             0.0       0.1       0.0       2.3       0.0       2.2
 0 C  dx2y2           0.0       0.3       0.0       7.0       0.0       6.7
 0 C  f+1             0.2       0.0       0.0       0.0       0.8       0.0
 0 C  f+3             0.3       0.0       0.0       0.0       1.3       0.0
 1 O  s              49.9      49.6       0.1      23.5      25.9      10.3
 1 O  px              0.0       0.0       0.3       6.6       2.9      29.8
 1 O  dz2             0.0       0.0       0.1       0.5       0.2       0.2
 1 O  dx2y2           0.0       0.0       0.4       1.5       0.6       0.5
 2 O  s              49.5      49.9       0.1      23.5      25.9      10.3
 2 O  px              0.0       0.0       0.3       6.6       2.9      29.8
 2 O  dz2             0.0       0.0       0.1       0.5       0.2       0.2
 2 O  dx2y2           0.0       0.0       0.4       1.5       0.6       0.5

                      6         7         8         9        10        11   
                  -0.64064  -0.64064  -0.63870  -0.48318  -0.48318   0.04975
                   2.00000   2.00000   2.00000   2.00000   2.00000   0.00000
                  --------  --------  --------  --------  --------  --------
 0 C  s               0.0       0.0       0.0       0.0       0.0      73.0
 0 C  pz             34.3       0.1       0.0       0.0       0.0       0.0
 0 C  px              0.0       0.0      13.8       0.0       0.0       0.0
 0 C  py              0.1      34.3       0.0       0.0       0.0       0.0
 0 C  dz2             0.0       0.0       0.0       0.0       0.0       2.4
 0 C  dxz             0.0       0.0       0.0       0.1      19.2       0.0
 0 C  dx2y2           0.0       0.0       0.0       0.0       0.0       7.1
 0 C  dxy             0.0       0.0       0.0      19.2       0.1       0.0
 0 C  f0              0.8       0.0       0.0       0.0       0.0       0.0
 0 C  f-1             0.0       0.1       0.0       0.0       0.0       0.0
 0 C  f+2             1.3       0.0       0.0       0.0       0.0       0.0
 0 C  f-3             0.0       1.9       0.0       0.0       0.0       0.0
 1 O  s               0.0       0.0       8.6       0.0       0.0       6.8
 1 O  pz             29.6       0.1       0.0       0.2      39.8       0.0
 1 O  px              0.0       0.0      34.0       0.0       0.0       1.5
 1 O  py              0.1      29.6       0.0      39.8       0.2       0.0
 1 O  dz2             0.0       0.0       0.1       0.0       0.0       0.1
 1 O  dxz             2.0       0.0       0.0       0.0       0.3       0.0
 1 O  dx2y2           0.0       0.0       0.3       0.0       0.0       0.4
 1 O  dxy             0.0       2.0       0.0       0.3       0.0       0.0
 2 O  s               0.0       0.0       8.6       0.0       0.0       6.8
 2 O  pz             29.6       0.1       0.0       0.2      39.8       0.0
 2 O  px              0.0       0.0      34.0       0.0       0.0       1.5
 2 O  py              0.1      29.6       0.0      39.8       0.2       0.0
 2 O  dz2             0.0       0.0       0.1       0.0       0.0       0.1
 2 O  dxz             2.0       0.0       0.0       0.0       0.3       0.0
 2 O  dx2y2           0.0       0.0       0.3       0.0       0.0       0.4
 2 O  dxy             0.0       2.0       0.0       0.3       0.0       0.0

                     12        13        14        15        16        17   
                   0.10620   0.11468   0.11468   0.12344   0.12344   0.13567
                   0.00000   0.00000   0.00000   0.00000   0.00000   0.00000
                  --------  --------  --------  --------  --------  --------
 0 C  pz              0.0       1.5       1.7      33.2       0.0       0.0
 0 C  py              0.0       1.7       1.5       0.0      33.2       0.0
 0 C  dz2             0.0       0.0       0.0       0.0       0.0       1.1
 0 C  dx2y2           0.0       0.0       0.0       0.0       0.0       3.2
 0 C  f0              0.0       0.0       0.0       2.0       0.0       0.0
 0 C  f-1             0.0       0.0       0.0       0.0       0.3       0.0
 0 C  f+2             0.0       0.0       0.0       3.3       0.0       0.0
 0 C  f-3             0.0       0.0       0.0       0.0       4.9       0.0
 1 O  s               0.6       0.0       0.0       0.0       0.0       1.3
 1 O  pz              0.0      22.5      25.1      17.8       0.0       0.0
 1 O  px             49.1       0.0       0.0       0.0       0.0      45.7
 1 O  py              0.0      25.1      22.5       0.0      17.8       0.0
 1 O  dz2             0.1       0.0       0.0       0.0       0.0       0.2
 1 O  dxz             0.0       0.3       0.4      12.5       0.0       0.0
 1 O  dx2y2           0.2       0.0       0.0       0.0       0.0       0.6
 1 O  dxy             0.0       0.4       0.3       0.0      12.5       0.0
 1 O  f0              0.0       0.0       0.0       0.2       0.0       0.0
 1 O  f+2             0.0       0.0       0.0       0.3       0.0       0.0
 1 O  f-3             0.0       0.0       0.0       0.0       0.4       0.0
 2 O  s               0.6       0.0       0.0       0.0       0.0       1.3
 2 O  pz              0.0      22.5      25.1      17.8       0.0       0.0
 2 O  px             49.1       0.0       0.0       0.0       0.0      45.7
 2 O  py              0.0      25.1      22.5       0.0      17.8       0.0
 2 O  dz2             0.1       0.0       0.0       0.0       0.0       0.2
 2 O  dxz             0.0       0.3       0.4      12.5       0.0       0.0
 2 O  dx2y2           0.2       0.0       0.0       0.0       0.0       0.6
 2 O  dxy             0.0       0.4       0.3       0.0      12.5       0.0
 2 O  f0              0.0       0.0       0.0       0.2       0.0       0.0
 2 O  f+2             0.0       0.0       0.0       0.3       0.0       0.0
 2 O  f-3             0.0       0.0       0.0       0.0       0.4       0.0

                     18        19        20        21        22        23   
                   0.15239   0.15239   0.18138   0.25709   0.26049   0.26049
                   0.00000   0.00000   0.00000   0.00000   0.00000   0.00000
                  --------  --------  --------  --------  --------  --------
 0 C  s               0.0       0.0      34.7       0.0       0.0       0.0
 0 C  px              0.0       0.0       0.0       9.9       0.0       0.0
 0 C  dz2             0.0       0.0       3.7       0.0       0.0      59.9
 0 C  dxz             3.6       0.9       0.0       0.0       0.0       0.0
 0 C  dyz             0.0       0.0       0.0       0.0      79.8       0.0
 0 C  dx2y2           0.0       0.0      11.0       0.0       0.0      20.0
 0 C  dxy             0.9       3.6       0.0       0.0       0.0       0.0
 0 C  f+1             0.0       0.0       0.0       0.1       0.0       0.0
 0 C  f+3             0.0       0.0       0.0       0.2       0.0       0.0
 1 O  s               0.0       0.0      21.2      36.8       0.0       0.0
 1 O  pz             37.2       8.8       0.0       0.0       0.0       0.0
 1 O  px              0.0       0.0       3.1       3.1       0.0       0.0
 1 O  py              8.8      37.2       0.0       0.0       0.0       0.0
 1 O  dz2             0.0       0.0       0.3       1.3       0.0       7.6
 1 O  dxz             1.4       0.3       0.0       0.0       0.0       0.0
 1 O  dyz             0.0       0.0       0.0       0.0      10.1       0.0
 1 O  dx2y2           0.0       0.0       0.8       3.8       0.0       2.5
 1 O  dxy             0.3       1.4       0.0       0.0       0.0       0.0
 2 O  s               0.0       0.0      21.2      36.8       0.0       0.0
 2 O  pz             37.2       8.8       0.0       0.0       0.0       0.0
 2 O  px              0.0       0.0       3.1       3.1       0.0       0.0
 2 O  py              8.8      37.2       0.0       0.0       0.0       0.0
 2 O  dz2             0.0       0.0       0.3       1.3       0.0       7.6
 2 O  dxz             1.4       0.3       0.0       0.0       0.0       0.0
 2 O  dyz             0.0       0.0       0.0       0.0      10.1       0.0
 2 O  dx2y2           0.0       0.0       0.8       3.8       0.0       2.5
 2 O  dxy             0.3       1.4       0.0       0.0       0.0       0.0

                     24        25        26        27        28        29   
                   0.34463   0.37444   0.37444   0.41344   0.41940   0.41940
                   0.00000   0.00000   0.00000   0.00000   0.00000   0.00000
                  --------  --------  --------  --------  --------  --------
 0 C  s              11.6       0.0       0.0      17.1       0.0       0.0
 0 C  pz              0.0      34.9      47.7       0.0       0.0       0.0
 0 C  py              0.0      47.7      34.9       0.0       0.0       0.0
 0 C  dz2             4.0       0.0       0.0      11.2       0.0       0.0
 0 C  dxz             0.0       0.0       0.0       0.0      39.6      36.5
 0 C  dx2y2          12.1       0.0       0.0      33.6       0.0       0.0
 0 C  dxy             0.0       0.0       0.0       0.0      36.5      39.6
 1 O  s              20.6       0.0       0.0       2.5       0.0       0.0
 1 O  pz              0.0       2.6       3.5       0.0       5.2       4.8
 1 O  px             14.8       0.0       0.0       2.8       0.0       0.0
 1 O  py              0.0       3.5       2.6       0.0       4.8       5.2
 1 O  dz2             0.2       0.0       0.0       3.4       0.0       0.0
 1 O  dxz             0.0       1.0       1.4       0.0       1.1       1.0
 1 O  dx2y2           0.6       0.0       0.0      10.3       0.0       0.0
 1 O  dxy             0.0       1.4       1.0       0.0       1.0       1.1
 2 O  s              20.6       0.0       0.0       2.5       0.0       0.0
 2 O  pz              0.0       2.6       3.5       0.0       5.2       4.8
 2 O  px             14.8       0.0       0.0       2.8       0.0       0.0
 2 O  py              0.0       3.5       2.6       0.0       4.8       5.2
 2 O  dz2             0.2       0.0       0.0       3.4       0.0       0.0
 2 O  dxz             0.0       1.0       1.4       0.0       1.1       1.0
 2 O  dx2y2           0.6       0.0       0.0      10.3       0.0       0.0
 2 O  dxy             0.0       1.4       1.0       0.0       1.0       1.1

                     30        31        32        33        34        35   
                   0.46048   0.50291   0.50291   0.55251   0.57227   0.57227
                   0.00000   0.00000   0.00000   0.00000   0.00000   0.00000
                  --------  --------  --------  --------  --------  --------
 0 C  s               0.0       0.0       0.0      10.3       0.0       0.0
 0 C  pz              0.0       0.0       0.0       0.0       5.8       6.1
 0 C  px              5.1       0.0       0.0       0.0       0.0       0.0
 0 C  py              0.0       0.0       0.0       0.0       6.1       5.8
 0 C  dz2             0.0       0.0       0.0       9.4       0.0       0.0
 0 C  dx2y2           0.0       0.0       0.0      28.3       0.0       0.0
 0 C  f0              0.0       0.0       0.0       0.0       0.3       0.3
 0 C  f+1             0.1       0.0       0.5       0.0       0.0       0.0
 0 C  f+2             0.0       0.0       0.0       0.0       0.5       0.5
 0 C  f-2             0.0       0.8       0.0       0.0       0.0       0.0
 0 C  f+3             0.1       0.0       0.3       0.0       0.0       0.0
 0 C  f-3             0.0       0.0       0.0       0.0       0.8       0.8
 1 O  s               5.7       0.0       0.0       2.4       0.0       0.0
 1 O  pz              0.0       0.0       0.0       0.0       4.6       4.8
 1 O  px              3.2       0.0       0.0       1.7       0.0       0.0
 1 O  py              0.0       0.0       0.0       0.0       4.8       4.6
 1 O  dz2             9.6       0.0      37.2       5.5       0.0       0.0
 1 O  dxz             0.0       0.0       0.0       0.0      16.3      17.0
 1 O  dyz             0.0      49.6       0.0       0.0       0.0       0.0
 1 O  dx2y2          28.8       0.0      12.4      16.4       0.0       0.0
 1 O  dxy             0.0       0.0       0.0       0.0      17.0      16.3
 1 O  f+2             0.0       0.0       0.0       0.0       0.1       0.1
 1 O  f-3             0.0       0.0       0.0       0.0       0.2       0.2
 2 O  s               5.7       0.0       0.0       2.4       0.0       0.0
 2 O  pz              0.0       0.0       0.0       0.0       4.6       4.8
 2 O  px              3.2       0.0       0.0       1.7       0.0       0.0
 2 O  py              0.0       0.0       0.0       0.0       4.8       4.6
 2 O  dz2             9.6       0.0      37.2       5.5       0.0       0.0
 2 O  dxz             0.0       0.0       0.0       0.0      16.3      17.0
 2 O  dyz             0.0      49.6       0.0       0.0       0.0       0.0
 2 O  dx2y2          28.8       0.0      12.4      16.4       0.0       0.0
 2 O  dxy             0.0       0.0       0.0       0.0      17.0      16.3
 2 O  f+2             0.0       0.0       0.0       0.0       0.1       0.1
 2 O  f-3             0.0       0.0       0.0       0.0       0.2       0.2

                     36        37        38        39        40        41   
                   0.60777   0.60777   0.62399   0.62399   0.62946   0.76080
                   0.00000   0.00000   0.00000   0.00000   0.00000   0.00000
                  --------  --------  --------  --------  --------  --------
 0 C  s               0.0       0.0       0.0       0.0       0.0      41.0
 0 C  px              0.0       0.0       0.0       0.0      57.2       0.0
 0 C  dz2             0.0      24.0       0.0       0.0       0.0       1.6
 0 C  dxz             0.0       0.0       6.0       4.0       0.0       0.0
 0 C  dyz            32.0       0.0       0.0       0.0       0.0       0.0
 0 C  dx2y2           0.0       8.0       0.0       0.0       0.0       4.7
 0 C  dxy             0.0       0.0       4.0       6.0       0.0       0.0
 0 C  f+1             0.0       0.0       0.0       0.0       0.8       0.0
 0 C  f+3             0.0       0.0       0.0       0.0       1.4       0.0
 1 O  s               0.0       0.0       0.0       0.0      16.0       5.3
 1 O  pz              0.0       0.0       0.8       0.5       0.0       0.0
 1 O  px              0.0       0.0       0.0       0.0       1.6       8.3
 1 O  py              0.0       0.0       0.5       0.8       0.0       0.0
 1 O  dz2             0.0      25.5       0.0       0.0       0.7       3.1
 1 O  dxz             0.0       0.0      26.2      17.4       0.0       0.0
 1 O  dyz            34.0       0.0       0.0       0.0       0.0       0.0
 1 O  dx2y2           0.0       8.5       0.0       0.0       2.0       9.2
 1 O  dxy             0.0       0.0      17.4      26.2       0.0       0.0
 1 O  f+1             0.0       0.0       0.0       0.0       0.0       0.2
 1 O  f+3             0.0       0.0       0.0       0.0       0.0       0.3
 2 O  s               0.0       0.0       0.0       0.0      16.0       5.3
 2 O  pz              0.0       0.0       0.8       0.5       0.0       0.0
 2 O  px              0.0       0.0       0.0       0.0       1.6       8.3
 2 O  py              0.0       0.0       0.5       0.8       0.0       0.0
 2 O  dz2             0.0      25.5       0.0       0.0       0.7       3.1
 2 O  dxz             0.0       0.0      26.2      17.4       0.0       0.0
 2 O  dyz            34.0       0.0       0.0       0.0       0.0       0.0
 2 O  dx2y2           0.0       8.5       0.0       0.0       2.0       9.2
 2 O  dxy             0.0       0.0      17.4      26.2       0.0       0.0
 2 O  f+1             0.0       0.0       0.0       0.0       0.0       0.2
 2 O  f+3             0.0       0.0       0.0       0.0       0.0       0.3

                     42        43        44        45        46        47   
                   0.88611   0.91037   0.93174   0.93174   0.94899   0.94899
                   0.00000   0.00000   0.00000   0.00000   0.00000   0.00000
                  --------  --------  --------  --------  --------  --------
 0 C  s               0.0      13.9       0.0       0.0       0.0       0.0
 0 C  pz              0.0       0.0       0.0       0.0       5.6      20.7
 0 C  px             15.3       0.0       0.0       0.0       0.0       0.0
 0 C  py              0.0       0.0       0.0       0.0      20.7       5.6
 0 C  dz2             0.0       0.8       0.0      61.7       0.0       0.0
 0 C  dyz             0.0       0.0      82.3       0.0       0.0       0.0
 0 C  dx2y2           0.0       2.4       0.0      20.6       0.0       0.0
 0 C  f0              0.0       0.0       0.0       0.0       0.1       0.2
 0 C  f+2             0.0       0.0       0.0       0.0       0.1       0.3
 0 C  f-3             0.0       0.0       0.0       0.0       0.5       0.1
 1 O  s               3.3       4.6       0.0       0.0       0.0       0.0
 1 O  pz              0.0       0.0       0.0       0.0       6.8      25.1
 1 O  px             26.4      25.1       0.0       0.0       0.0       0.0
 1 O  py              0.0       0.0       0.0       0.0      25.1       6.8
 1 O  dz2             3.0       2.9       0.0       6.2       0.0       0.0
 1 O  dxz             0.0       0.0       0.0       0.0       0.9       3.3
 1 O  dyz             0.0       0.0       8.3       0.0       0.0       0.0
 1 O  dx2y2           9.0       8.6       0.0       2.1       0.0       0.0
 1 O  dxy             0.0       0.0       0.0       0.0       3.3       0.9
 1 O  f0              0.0       0.0       0.0       0.0       0.0       0.1
 1 O  f+1             0.2       0.1       0.0       0.3       0.0       0.0
 1 O  f+2             0.0       0.0       0.0       0.0       0.1       0.2
 1 O  f-2             0.0       0.0       0.5       0.0       0.0       0.0
 1 O  f+3             0.4       0.2       0.0       0.2       0.0       0.0
 1 O  f-3             0.0       0.0       0.0       0.0       0.3       0.1
 2 O  s               3.3       4.6       0.0       0.0       0.0       0.0
 2 O  pz              0.0       0.0       0.0       0.0       6.8      25.1
 2 O  px             26.4      25.1       0.0       0.0       0.0       0.0
 2 O  py              0.0       0.0       0.0       0.0      25.1       6.8
 2 O  dz2             3.0       2.9       0.0       6.2       0.0       0.0
 2 O  dxz             0.0       0.0       0.0       0.0       0.9       3.3
 2 O  dyz             0.0       0.0       8.3       0.0       0.0       0.0
 2 O  dx2y2           9.0       8.6       0.0       2.1       0.0       0.0
 2 O  dxy             0.0       0.0       0.0       0.0       3.3       0.9
 2 O  f0              0.0       0.0       0.0       0.0       0.0       0.1
 2 O  f+1             0.2       0.1       0.0       0.3       0.0       0.0
 2 O  f+2             0.0       0.0       0.0       0.0       0.1       0.2
 2 O  f-2             0.0       0.0       0.5       0.0       0.0       0.0
 2 O  f+3             0.4       0.2       0.0       0.2       0.0       0.0
 2 O  f-3             0.0       0.0       0.0       0.0       0.3       0.1

                     48        49        50        51        52        53   
                   0.97764   0.97764   1.04662   1.15817   1.24068   1.26549
                   0.00000   0.00000   0.00000   0.00000   0.00000   0.00000
                  --------  --------  --------  --------  --------  --------
 0 C  s               0.0       0.0       0.0       0.0      17.3       0.0
 0 C  px              0.0       0.0      21.8      28.3       0.0       0.0
 0 C  dz2             0.0       0.0       0.0       0.0       1.5       0.0
 0 C  dxz             2.6      18.0       0.0       0.0       0.0       9.7
 0 C  dx2y2           0.0       0.0       0.0       0.0       4.5       0.0
 0 C  dxy            18.0       2.6       0.0       0.0       0.0      31.4
 0 C  f+1             0.0       0.0       1.6       6.2       0.0       0.0
 0 C  f+3             0.0       0.0       2.7      10.3       0.0       0.0
 1 O  s               0.0       0.0       5.9      23.0      30.4       0.0
 1 O  pz              4.9      33.9       0.0       0.0       0.0       1.4
 1 O  px              0.0       0.0      20.8       2.7       1.0       0.0
 1 O  py             33.9       4.9       0.0       0.0       0.0       4.4
 1 O  dz2             0.0       0.0       2.5       0.5       1.7       0.0
 1 O  dxz             0.1       0.7       0.0       0.0       0.0       5.5
 1 O  dx2y2           0.0       0.0       7.5       1.4       5.2       0.0
 1 O  dxy             0.7       0.1       0.0       0.0       0.0      17.7
 1 O  f+1             0.0       0.0       0.1       0.0       0.0       0.0
 1 O  f+3             0.0       0.0       0.2       0.0       0.0       0.0
 1 O  f-3             0.1       0.0       0.0       0.0       0.0       0.3
 2 O  s               0.0       0.0       5.9      23.0      30.4       0.0
 2 O  pz              4.9      33.9       0.0       0.0       0.0       1.4
 2 O  px              0.0       0.0      20.8       2.7       1.0       0.0
 2 O  py             33.9       4.9       0.0       0.0       0.0       4.4
 2 O  dz2             0.0       0.0       2.5       0.5       1.7       0.0
 2 O  dxz             0.1       0.7       0.0       0.0       0.0       5.5
 2 O  dx2y2           0.0       0.0       7.5       1.4       5.2       0.0
 2 O  dxy             0.7       0.1       0.0       0.0       0.0      17.7
 2 O  f+1             0.0       0.0       0.1       0.0       0.0       0.0
 2 O  f+3             0.0       0.0       0.2       0.0       0.0       0.0
 2 O  f-3             0.1       0.0       0.0       0.0       0.0       0.3

                     54        55        56        57        58        59   
                   1.26549   1.70379   1.70379   1.71667   1.71669   1.85987
                   0.00000   0.00000   0.00000   0.00000   0.00000   0.00000
                  --------  --------  --------  --------  --------  --------
 0 C  s               0.0       0.0       0.0       0.0       0.0      39.8
 0 C  pz              0.0      30.6      56.0       0.0       0.0       0.0
 0 C  py              0.0      56.0      30.6       0.0       0.0       0.0
 0 C  dz2             0.0       0.0       0.0       0.0       0.0       8.3
 0 C  dxz            31.4       0.0       0.0       0.0       0.0       0.0
 0 C  dx2y2           0.0       0.0       0.0       0.0       0.0      24.8
 0 C  dxy             9.7       0.0       0.0       0.0       0.0       0.0
 0 C  f0              0.0       0.6       1.0       0.0       0.0       0.0
 0 C  f+1             0.0       0.0       0.0       0.0       8.4       0.0
 0 C  f-1             0.0       0.2       0.1       0.0       0.0       0.0
 0 C  f+2             0.0       0.9       1.7       0.0       0.0       0.0
 0 C  f-2             0.0       0.0       0.0      13.4       0.0       0.0
 0 C  f+3             0.0       0.0       0.0       0.0       5.0       0.0
 0 C  f-3             0.0       2.6       1.4       0.0       0.0       0.0
 1 O  s               0.0       0.0       0.0       0.0       0.0       7.1
 1 O  pz              4.4       1.1       2.0       0.0       0.0       0.0
 1 O  px              0.0       0.0       0.0       0.0       0.0       5.5
 1 O  py              1.4       2.0       1.1       0.0       0.0       0.0
 1 O  dz2             0.0       0.0       0.0       0.0      32.4       0.1
 1 O  dxz            17.7       0.5       0.9       0.0       0.0       0.0
 1 O  dyz             0.0       0.0       0.0      43.2       0.0       0.0
 1 O  dx2y2           0.0       0.0       0.0       0.0      10.8       0.3
 1 O  dxy             5.5       0.9       0.5       0.0       0.0       0.0
 1 O  f0              0.1       0.0       0.0       0.0       0.0       0.0
 1 O  f+1             0.0       0.0       0.0       0.0       0.0       0.2
 1 O  f+2             0.2       0.0       0.1       0.0       0.0       0.0
 1 O  f+3             0.0       0.0       0.0       0.0       0.0       0.4
 1 O  f-3             0.1       0.1       0.0       0.0       0.0       0.0
 2 O  s               0.0       0.0       0.0       0.0       0.0       7.1
 2 O  pz              4.4       1.1       2.0       0.0       0.0       0.0
 2 O  px              0.0       0.0       0.0       0.0       0.0       5.5
 2 O  py              1.4       2.0       1.1       0.0       0.0       0.0
 2 O  dz2             0.0       0.0       0.0       0.0      32.4       0.1
 2 O  dxz            17.7       0.5       0.9       0.0       0.0       0.0
 2 O  dyz             0.0       0.0       0.0      43.2       0.0       0.0
 2 O  dx2y2           0.0       0.0       0.0       0.0      10.8       0.3
 2 O  dxy             5.5       0.9       0.5       0.0       0.0       0.0
 2 O  f0              0.1       0.0       0.0       0.0       0.0       0.0
 2 O  f+1             0.0       0.0       0.0       0.0       0.0       0.2
 2 O  f+2             0.2       0.0       0.1       0.0       0.0       0.0
 2 O  f+3             0.0       0.0       0.0       0.0       0.0       0.4
 2 O  f-3             0.1       0.1       0.0       0.0       0.0       0.0

                     60        61        62        63        64        65   
                   1.88610   1.91513   1.91516   2.00893   2.00893   2.15473
                   0.00000   0.00000   0.00000   0.00000   0.00000   0.00000
                  --------  --------  --------  --------  --------  --------
 0 C  s               0.0       0.0       0.0       0.0       0.0      18.1
 0 C  pz              0.0       0.0       0.0       0.0       5.6       0.0
 0 C  px             47.3       0.0       0.0       0.0       0.0       0.0
 0 C  py              0.0       0.0       0.0       5.6       0.0       0.0
 0 C  dz2             0.0       0.0       3.9       0.0       0.0       3.8
 0 C  dyz             0.0       5.1       0.0       0.0       0.0       0.0
 0 C  dx2y2           0.0       0.0       1.3       0.0       0.0      11.5
 0 C  f0              0.0       0.0       0.0       0.0       4.9       0.0
 0 C  f+1             6.8       0.0       0.0       0.0       0.0       0.0
 0 C  f-1             0.0       0.0       0.0       0.8       0.0       0.0
 0 C  f+2             0.0       0.0       0.0       0.0       8.2       0.0
 0 C  f+3            11.4       0.0       0.0       0.0       0.0       0.0
 0 C  f-3             0.0       0.0       0.0      12.3       0.0       0.0
 1 O  s               9.0       0.0       0.0       0.0       0.0       4.4
 1 O  pz              0.0       0.0       0.0       0.0       1.4       0.0
 1 O  px              5.4       0.0       0.0       0.0       0.0      15.5
 1 O  py              0.0       0.0       0.0       1.4       0.0       0.0
 1 O  dz2             0.1       0.0      35.6       0.0       0.0       3.2
 1 O  dxz             0.0       0.0       0.0       0.1      38.2       0.0
 1 O  dyz             0.0      47.4       0.0       0.0       0.0       0.0
 1 O  dx2y2           0.3       0.0      11.9       0.0       0.0       9.6
 1 O  dxy             0.0       0.0       0.0      38.2       0.1       0.0
 1 O  f0              0.0       0.0       0.0       0.0       0.4       0.0
 1 O  f+1             0.9       0.0       0.0       0.0       0.0       0.2
 1 O  f+2             0.0       0.0       0.0       0.0       0.6       0.0
 1 O  f+3             1.6       0.0       0.0       0.0       0.0       0.4
 1 O  f-3             0.0       0.0       0.0       0.9       0.0       0.0
 2 O  s               9.0       0.0       0.0       0.0       0.0       4.4
 2 O  pz              0.0       0.0       0.0       0.0       1.4       0.0
 2 O  px              5.4       0.0       0.0       0.0       0.0      15.5
 2 O  py              0.0       0.0       0.0       1.4       0.0       0.0
 2 O  dz2             0.1       0.0      35.6       0.0       0.0       3.2
 2 O  dxz             0.0       0.0       0.0       0.1      38.2       0.0
 2 O  dyz             0.0      47.4       0.0       0.0       0.0       0.0
 2 O  dx2y2           0.3       0.0      11.9       0.0       0.0       9.6
 2 O  dxy             0.0       0.0       0.0      38.2       0.1       0.0
 2 O  f0              0.0       0.0       0.0       0.0       0.4       0.0
 2 O  f+1             0.9       0.0       0.0       0.0       0.0       0.2
 2 O  f+2             0.0       0.0       0.0       0.0       0.6       0.0
 2 O  f+3             1.6       0.0       0.0       0.0       0.0       0.4
 2 O  f-3             0.0       0.0       0.0       0.9       0.0       0.0

                     66        67        68        69        70        71   
                   2.43475   2.49426   2.49426   2.61555   2.68354   2.68354
                   0.00000   0.00000   0.00000   0.00000   0.00000   0.00000
                  --------  --------  --------  --------  --------  --------
 0 C  s               0.0       0.0       0.0      35.5       0.0       0.0
 0 C  px             13.5       0.0       0.0       0.0       0.0       0.0
 0 C  dz2             0.0       0.0       0.0       3.2       0.0       0.0
 0 C  dxz             0.0       8.3      20.5       0.0       0.0       0.0
 0 C  dx2y2           0.0       0.0       0.0       9.6       0.0       0.0
 0 C  dxy             0.0      20.5       8.3       0.0       0.0       0.0
 0 C  f0              0.0       0.0       0.0       0.0      34.8      27.0
 0 C  f+1             0.1       0.0       0.0       0.0       0.0       0.0
 0 C  f-1             0.0       0.0       0.0       0.0      40.4      52.1
 0 C  f+2             0.0       0.0       0.0       0.0      20.9      16.2
 0 C  f+3             0.2       0.0       0.0       0.0       0.0       0.0
 0 C  f-3             0.0       0.0       0.0       0.0       2.7       3.5
 1 O  s               2.0       0.0       0.0       3.9       0.0       0.0
 1 O  pz              0.0       3.8       9.3       0.0       0.0       0.0
 1 O  px             17.1       0.0       0.0       1.9       0.0       0.0
 1 O  py              0.0       9.3       3.8       0.0       0.0       0.0
 1 O  dz2             5.6       0.0       0.0       3.0       0.0       0.0
 1 O  dxz             0.0       6.3      15.7       0.0       0.0       0.0
 1 O  dx2y2          16.7       0.0       0.0       9.1       0.0       0.0
 1 O  dxy             0.0      15.7       6.3       0.0       0.0       0.0
 1 O  f0              0.0       0.1       0.2       0.0       0.2       0.2
 1 O  f+1             0.7       0.0       0.0       2.9       0.0       0.0
 1 O  f-1             0.0       0.0       0.0       0.0       0.3       0.3
 1 O  f+2             0.0       0.1       0.3       0.0       0.1       0.1
 1 O  f+3             1.1       0.0       0.0       4.8       0.0       0.0
 1 O  f-3             0.0       0.4       0.2       0.0       0.0       0.0
 2 O  s               2.0       0.0       0.0       3.9       0.0       0.0
 2 O  pz              0.0       3.8       9.3       0.0       0.0       0.0
 2 O  px             17.1       0.0       0.0       1.9       0.0       0.0
 2 O  py              0.0       9.3       3.8       0.0       0.0       0.0
 2 O  dz2             5.6       0.0       0.0       3.0       0.0       0.0
 2 O  dxz             0.0       6.3      15.7       0.0       0.0       0.0
 2 O  dx2y2          16.7       0.0       0.0       9.1       0.0       0.0
 2 O  dxy             0.0      15.7       6.3       0.0       0.0       0.0
 2 O  f0              0.0       0.1       0.2       0.0       0.2       0.2
 2 O  f+1             0.7       0.0       0.0       2.9       0.0       0.0
 2 O  f-1             0.0       0.0       0.0       0.0       0.3       0.3
 2 O  f+2             0.0       0.1       0.3       0.0       0.1       0.1
 2 O  f+3             1.1       0.0       0.0       4.8       0.0       0.0
 2 O  f-3             0.0       0.4       0.2       0.0       0.0       0.0

                     72        73        74        75        76        77   
                   2.94427   2.94427   3.01882   3.01882   3.02353   3.02353
                   0.00000   0.00000   0.00000   0.00000   0.00000   0.00000
                  --------  --------  --------  --------  --------  --------
 0 C  pz              1.0       2.1       0.0       0.0       0.0       0.0
 0 C  py              2.1       1.0       0.0       0.0       0.0       0.0
 0 C  dxz             0.0       0.0       0.0       0.0       0.0      48.1
 0 C  dxy             0.0       0.0       0.0       0.0      48.1       0.0
 0 C  f0              1.0       2.0       0.0       0.0       0.0       0.0
 0 C  f+1             0.0       0.0       0.0      46.4       0.0       0.0
 0 C  f-1             0.3       0.2       0.0       0.0       0.0       0.0
 0 C  f+2             1.7       3.4       0.0       0.0       0.0       0.0
 0 C  f-2             0.0       0.0      74.3       0.0       0.0       0.0
 0 C  f+3             0.0       0.0       0.0      27.9       0.0       0.0
 0 C  f-3             5.1       2.5       0.0       0.0       0.0       0.0
 1 O  pz             14.6      29.6       0.0       0.0       0.0      23.4
 1 O  py             29.6      14.6       0.0       0.0      23.4       0.0
 1 O  dz2             0.0       0.0       0.0       4.9       0.0       0.0
 1 O  dxz             0.0       0.1       0.0       0.0       0.0       1.1
 1 O  dyz             0.0       0.0       6.5       0.0       0.0       0.0
 1 O  dx2y2           0.0       0.0       0.0       1.6       0.0       0.0
 1 O  dxy             0.1       0.0       0.0       0.0       1.1       0.0
 1 O  f0              0.0       0.0       0.0       0.0       0.0       0.5
 1 O  f+1             0.0       0.0       0.0       3.9       0.0       0.0
 1 O  f+2             0.0       0.1       0.0       0.0       0.0       0.9
 1 O  f-2             0.0       0.0       6.3       0.0       0.0       0.0
 1 O  f+3             0.0       0.0       0.0       2.4       0.0       0.0
 1 O  f-3             0.1       0.0       0.0       0.0       1.3       0.0
 2 O  pz             14.6      29.6       0.0       0.0       0.0      23.4
 2 O  py             29.6      14.6       0.0       0.0      23.4       0.0
 2 O  dz2             0.0       0.0       0.0       4.9       0.0       0.0
 2 O  dxz             0.0       0.1       0.0       0.0       0.0       1.1
 2 O  dyz             0.0       0.0       6.5       0.0       0.0       0.0
 2 O  dx2y2           0.0       0.0       0.0       1.6       0.0       0.0
 2 O  dxy             0.1       0.0       0.0       0.0       1.1       0.0
 2 O  f0              0.0       0.0       0.0       0.0       0.0       0.5
 2 O  f+1             0.0       0.0       0.0       3.9       0.0       0.0
 2 O  f+2             0.0       0.1       0.0       0.0       0.0       0.9
 2 O  f-2             0.0       0.0       6.3       0.0       0.0       0.0
 2 O  f+3             0.0       0.0       0.0       2.4       0.0       0.0
 2 O  f-3             0.1       0.0       0.0       0.0       1.3       0.0

                     78        79        80        81        82        83   
                   3.07722   3.07724   3.28085   3.39490   3.51213   3.51213
                   0.00000   0.00000   0.00000   0.00000   0.00000   0.00000
                  --------  --------  --------  --------  --------  --------
 0 C  s               0.0       0.0       0.0       3.4       0.0       0.0
 0 C  px              0.0       0.0       1.7       0.0       0.0       0.0
 0 C  dz2            73.9       0.0       0.0       2.5       0.0       0.0
 0 C  dxz             0.0       0.0       0.0       0.0       1.2      28.8
 0 C  dyz             0.0      98.5       0.0       0.0       0.0       0.0
 0 C  dx2y2          24.6       0.0       0.0       7.4       0.0       0.0
 0 C  dxy             0.0       0.0       0.0       0.0      28.8       1.2
 0 C  f+1             0.0       0.0       0.9       0.0       0.0       0.0
 0 C  f+3             0.0       0.0       1.6       0.0       0.0       0.0
 1 O  s               0.0       0.0      39.1      24.8       0.0       0.0
 1 O  pz              0.0       0.0       0.0       0.0       0.8      18.5
 1 O  px              0.0       0.0       7.0      17.2       0.0       0.0
 1 O  py              0.0       0.0       0.0       0.0      18.5       0.8
 1 O  dz2             0.2       0.0       0.5       0.4       0.0       0.0
 1 O  dxz             0.0       0.0       0.0       0.0       0.2       5.4
 1 O  dyz             0.0       0.2       0.0       0.0       0.0       0.0
 1 O  dx2y2           0.1       0.0       1.4       1.1       0.0       0.0
 1 O  dxy             0.0       0.0       0.0       0.0       5.4       0.2
 1 O  f0              0.0       0.0       0.0       0.0       0.2       3.6
 1 O  f+1             0.3       0.0       0.0       0.0       0.0       0.0
 1 O  f-1             0.0       0.0       0.0       0.0       0.6       0.0
 1 O  f+2             0.0       0.0       0.0       0.0       0.3       6.0
 1 O  f-2             0.0       0.5       0.0       0.0       0.0       0.0
 1 O  f+3             0.2       0.0       0.0       0.0       0.0       0.0
 1 O  f-3             0.0       0.0       0.0       0.0       9.1       0.4
 2 O  s               0.0       0.0      39.1      24.8       0.0       0.0
 2 O  pz              0.0       0.0       0.0       0.0       0.8      18.5
 2 O  px              0.0       0.0       7.0      17.2       0.0       0.0
 2 O  py              0.0       0.0       0.0       0.0      18.5       0.8
 2 O  dz2             0.2       0.0       0.5       0.4       0.0       0.0
 2 O  dxz             0.0       0.0       0.0       0.0       0.2       5.4
 2 O  dyz             0.0       0.2       0.0       0.0       0.0       0.0
 2 O  dx2y2           0.1       0.0       1.4       1.1       0.0       0.0
 2 O  dxy             0.0       0.0       0.0       0.0       5.4       0.2
 2 O  f0              0.0       0.0       0.0       0.0       0.2       3.6
 2 O  f+1             0.3       0.0       0.0       0.0       0.0       0.0
 2 O  f-1             0.0       0.0       0.0       0.0       0.6       0.0
 2 O  f+2             0.0       0.0       0.0       0.0       0.3       6.0
 2 O  f-2             0.0       0.5       0.0       0.0       0.0       0.0
 2 O  f+3             0.2       0.0       0.0       0.0       0.0       0.0
[...]
 1 O  dx2y2           1.7       0.0       9.8       0.0       0.0       0.0
 1 O  dxy             0.0       0.0       0.0      10.1       5.0       0.0
 1 O  f0              0.0       0.0       0.0       3.3       6.7       0.0
 1 O  f+1            24.0       0.0      10.7       0.0       0.0       0.0
 1 O  f-1             0.0       0.0       0.0       1.1       0.6       0.0
 1 O  f+2             0.0       0.0       0.0       5.5      11.2       0.0
 1 O  f-2             0.0      38.3       0.0       0.0       0.0       0.3
 1 O  f+3            14.4       0.0      17.8       0.0       0.0       0.0
 1 O  f-3             0.0       0.0       0.0      16.8       8.3       0.0
 2 O  s               0.0       0.0       1.4       0.0       0.0       0.0
 2 O  pz              0.0       0.0       0.0       0.1       0.3       0.0
 2 O  px              0.0       0.0       1.7       0.0       0.0       0.0
 2 O  py              0.0       0.0       0.0       0.3       0.1       0.0
 2 O  dz2             5.1       0.0       3.3       0.0       0.0       0.0
 2 O  dxz             0.0       0.0       0.0       5.0      10.1       0.0
 2 O  dyz             0.0       6.8       0.0       0.0       0.0      49.6
 2 O  dx2y2           1.7       0.0       9.8       0.0       0.0       0.0
 2 O  dxy             0.0       0.0       0.0      10.1       5.0       0.0
 2 O  f0              0.0       0.0       0.0       3.3       6.7       0.0
 2 O  f+1            24.0       0.0      10.7       0.0       0.0       0.0
 2 O  f-1             0.0       0.0       0.0       1.1       0.6       0.0
 2 O  f+2             0.0       0.0       0.0       5.5      11.2       0.0
 2 O  f-2             0.0      38.3       0.0       0.0       0.0       0.3
 2 O  f+3            14.4       0.0      17.8       0.0       0.0       0.0
 2 O  f-3             0.0       0.0       0.0      16.8       8.3       0.0

                    102       103       104       105       106       107   
                   6.49012   6.51175   6.51180   6.57908   6.57908   6.93712
                   0.00000   0.00000   0.00000   0.00000   0.00000   0.00000
                  --------  --------  --------  --------  --------  --------
 0 C  pz              0.0       0.0       0.0       0.9       1.5       3.5
 0 C  py              0.0       0.0       0.0       1.5       0.9       3.3
 0 C  dz2             0.2       0.0       0.0       0.0       0.0       0.0
 0 C  f0              0.0       0.0       0.0       0.0       0.0       3.6
 0 C  f+1             0.0       0.0       1.1       0.0       0.0       0.0
 0 C  f-1             0.0       0.0       0.0       0.0       0.0       0.6
 0 C  f+2             0.0       0.0       0.0       0.0       0.0       6.0
 0 C  f-2             0.0       1.7       0.0       0.0       0.0       0.0
 0 C  f+3             0.0       0.0       0.6       0.0       0.0       0.0
 0 C  f-3             0.0       0.0       0.0       0.0       0.0       8.4
 1 O  pz              0.0       0.0       0.0       0.1       0.2       1.8
 1 O  py              0.0       0.0       0.0       0.2       0.1       1.7
 1 O  dz2            37.2       0.0      32.9       0.0       0.0       0.0
 1 O  dxz             0.0       0.0       0.0      14.5      23.3       6.2
 1 O  dyz             0.0      43.9       0.0       0.0       0.0       0.0
 1 O  dx2y2          12.4       0.0      11.0       0.0       0.0       0.0
 1 O  dxy             0.0       0.0       0.0      23.3      14.5       5.8
 1 O  f0              0.0       0.0       0.0       1.5       2.5       4.2
 1 O  f+1             0.2       0.0       3.3       0.0       0.0       0.0
 1 O  f-1             0.0       0.0       0.0       0.4       0.3       0.7
 1 O  f+2             0.0       0.0       0.0       2.5       4.1       7.0
 1 O  f-2             0.0       5.3       0.0       0.0       0.0       0.0
 1 O  f+3             0.1       0.0       2.0       0.0       0.0       0.0
 1 O  f-3             0.0       0.0       0.0       6.1       3.8       9.9
 2 O  pz              0.0       0.0       0.0       0.1       0.2       1.8
 2 O  py              0.0       0.0       0.0       0.2       0.1       1.7
 2 O  dz2            37.2       0.0      32.9       0.0       0.0       0.0
 2 O  dxz             0.0       0.0       0.0      14.5      23.3       6.2
 2 O  dyz             0.0      43.9       0.0       0.0       0.0       0.0
 2 O  dx2y2          12.4       0.0      11.0       0.0       0.0       0.0
 2 O  dxy             0.0       0.0       0.0      23.3      14.5       5.8
 2 O  f0              0.0       0.0       0.0       1.5       2.5       4.2
 2 O  f+1             0.2       0.0       3.3       0.0       0.0       0.0
 2 O  f-1             0.0       0.0       0.0       0.4       0.3       0.7
 2 O  f+2             0.0       0.0       0.0       2.5       4.1       7.0
 2 O  f-2             0.0       5.3       0.0       0.0       0.0       0.0
 2 O  f+3             0.1       0.0       2.0       0.0       0.0       0.0
 2 O  f-3             0.0       0.0       0.0       6.1       3.8       9.9

                    108       109       110       111       112       113   
                   6.93712   7.01778   7.18821   7.18821   7.55406   7.83572
                   0.00000   0.00000   0.00000   0.00000   0.00000   0.00000
                  --------  --------  --------  --------  --------  --------
 0 C  s               0.0       2.3       0.0       0.0       0.0      27.3
 0 C  pz              3.3       0.0       0.0       0.0       0.0       0.0
 0 C  px              0.0       0.0       0.0       0.0       7.5       0.0
 0 C  py              3.5       0.0       0.0       0.0       0.0       0.0
 0 C  dz2             0.0       1.0       0.0       0.0       0.0       2.5
 0 C  dxz             0.0       0.0       2.1       3.8       0.0       0.0
 0 C  dx2y2           0.0       2.9       0.0       0.0       0.0       7.4
 0 C  dxy             0.0       0.0       3.8       2.1       0.0       0.0
 0 C  f0              3.3       0.0       0.0       0.0       0.0       0.0
 0 C  f+1             0.0       0.0       0.0       0.0       2.2       0.0
 0 C  f-1             0.6       0.0       0.0       0.0       0.0       0.0
 0 C  f+2             5.6       0.0       0.0       0.0       0.0       0.0
 0 C  f+3             0.0       0.0       0.0       0.0       3.7       0.0
 0 C  f-3             9.0       0.0       0.0       0.0       0.0       0.0
 1 O  s               0.0       1.0       0.0       0.0       2.7       6.0
 1 O  pz              1.7       0.0       0.7       1.2       0.0       0.0
 1 O  px              0.0       0.7       0.0       0.0       2.8       7.4
 1 O  py              1.8       0.0       1.2       0.7       0.0       0.0
 1 O  dz2             0.0      10.8       0.0       0.0       8.0       0.7
 1 O  dxz             5.8       0.0      12.5      22.1       0.0       0.0
 1 O  dx2y2           0.0      32.5       0.0       0.0      24.0       2.0
 1 O  dxy             6.2       0.0      22.1      12.5       0.0       0.0
 1 O  f0              3.9       0.0       1.4       2.5       0.0       0.0
 1 O  f+1             0.0       0.7       0.0       0.0       2.1       5.8
 1 O  f-1             0.7       0.0       0.4       0.2       0.0       0.0
 1 O  f+2             6.6       0.0       2.4       4.2       0.0       0.0
 1 O  f+3             0.0       1.2       0.0       0.0       3.5       9.6
 1 O  f-3            10.5       0.0       6.3       3.6       0.0       0.0
 2 O  s               0.0       1.0       0.0       0.0       2.7       6.0
 2 O  pz              1.7       0.0       0.7       1.2       0.0       0.0
 2 O  px              0.0       0.7       0.0       0.0       2.8       7.4
 2 O  py              1.8       0.0       1.2       0.7       0.0       0.0
 2 O  dz2             0.0      10.8       0.0       0.0       8.0       0.7
 2 O  dxz             5.8       0.0      12.5      22.1       0.0       0.0
 2 O  dx2y2           0.0      32.5       0.0       0.0      24.0       2.0
 2 O  dxy             6.2       0.0      22.1      12.5       0.0       0.0
 2 O  f0              3.9       0.0       1.4       2.5       0.0       0.0
 2 O  f+1             0.0       0.7       0.0       0.0       2.1       5.8
 2 O  f-1             0.7       0.0       0.4       0.2       0.0       0.0
 2 O  f+2             6.6       0.0       2.4       4.2       0.0       0.0
 2 O  f+3             0.0       1.2       0.0       0.0       3.5       9.6
 2 O  f-3            10.5       0.0       6.3       3.6       0.0       0.0

                    114       115       116   
                  24.24074  44.00483  44.34363
                   0.00000   0.00000   0.00000
                  --------  --------  --------
 0 C  s              94.5       0.0       0.4
 0 C  px              0.0       0.1       0.0
 0 C  dz2             0.2       0.0       0.0
 0 C  dx2y2           0.5       0.0       0.0
 1 O  s               1.2      49.9      49.8
 1 O  px              0.9       0.0       0.0
 1 O  dx2y2           0.1       0.0       0.0
 2 O  s               1.2      49.9      49.8
 2 O  px              0.9       0.0       0.0
 2 O  dx2y2           0.1       0.0       0.0


                      *****************************
                      * MAYER POPULATION ANALYSIS *
                      *****************************

  NA   - Mulliken gross atomic population
  ZA   - Total nuclear charge
  QA   - Mulliken gross atomic charge
  VA   - Mayer's total valence
  BVA  - Mayer's bonded valence
  FA   - Mayer's free valence

  ATOM       NA         ZA         QA         VA         BVA        FA
  0 C      5.1850     6.0000     0.8150     3.7193     3.7193     0.0000
  1 O      8.4075     8.0000    -0.4075     2.1615     2.1615    -0.0000
  2 O      8.4075     8.0000    -0.4075     2.1615     2.1615     0.0000

  Mayer bond orders larger than 0.100000
B(  0-C ,  1-O ) :   1.8597 B(  0-C ,  2-O ) :   1.8597 B(  1-O ,  2-O ) :   0.3018 


-------
TIMINGS
-------

Total SCF time: 0 days 0 hours 0 min 3 sec 

Total time                  ....       3.681 sec
Sum of individual times     ....       3.663 sec  ( 99.5%)

SCF preparation             ....       0.346 sec  (  9.4%)
Fock matrix formation       ....       3.159 sec  ( 85.8%)
  Startup                   ....       0.012 sec  (  0.4% of F)
  Split-RI-J                ....       0.186 sec  (  5.9% of F)
  Chain of spheres X        ....       2.286 sec  ( 72.4% of F)
  XC integration            ....       0.627 sec  ( 19.9% of F)
    XC Preparation          ....       0.000 sec  (  0.0% of XC)
    Basis function eval.    ....       0.123 sec  ( 19.6% of XC)
    Density eval.           ....       0.075 sec  ( 11.9% of XC)
    XC-Functional eval.     ....       0.046 sec  (  7.4% of XC)
    XC-Potential eval.      ....       0.172 sec  ( 27.4% of XC)
Diagonalization             ....       0.000 sec  (  0.0%)
Density matrix formation    ....       0.022 sec  (  0.6%)
Total Energy calculation    ....       0.011 sec  (  0.3%)
Population analysis         ....       0.026 sec  (  0.7%)
Orbital Transformation      ....       0.014 sec  (  0.4%)
Orbital Orthonormalization  ....       0.000 sec  (  0.0%)
DIIS solution               ....       0.063 sec  (  1.7%)
SOSCF solution              ....       0.023 sec  (  0.6%)
Finished LeanSCF after   3.7 sec

Maximum memory used throughout the entire LEANSCF-calculation: 9.2 MB

-------------------------   --------------------
FINAL SINGLE POINT ENERGY      -188.620556787371
-------------------------   --------------------



           ************************************************************
           *        Program running with 4 parallel MPI-processes     *
           *              working on a common directory               *
           ************************************************************

------------------------------------------------------------------------------
                              ORCA PROPERTY CALCULATIONS
------------------------------------------------------------------------------

GBWName                                 ... reference.wb97x.gbw
Number of atoms                         ...      3
Number of basis functions               ...    117
Max core memory                         ...   1024 MB

Electric properties:
Dipole moment                           ... YES
Quadrupole moment                       ...  NO
Static polarizability (Dipole/Dipole)   ...  NO
Static polarizability (Dipole/Quad.)    ...  NO
Static polarizability (Quad./Quad.)     ...  NO
Static polarizability (Velocity)        ...  NO

Atomic electric properties:
Dipole moment                           ...  NO
Quadrupole moment                       ...  NO
Static polarizability                   ...  NO

Choice of electric origin               ... Center of mass
Position of electric origin             ...     0.000000     0.000000     0.000000

General magnetic properties:
Magnetizability                         ...  NO

EPR properties:
g-Tensor (aka g-matrix)                 ...  NO
Zero-Field splitting spin-orbit         ...  NO
Zero-field splitting spin-spin          ...  NO
Hyperfine couplings                     ...  NO (   0 nuclei)
Quadrupole couplings                    ...  NO (   0 nuclei)
Contact density                         ...  NO (   0 nuclei)

NMR properties:
Chemical shifts                         ...  NO (   0 nuclei)
Spin-rotation constants                 ...  NO (   0 nuclei)
Spin-spin couplings                     ...  NO (   0 nuclei,    0 pairs)

Choice of magnetic origin               ... GIAO
Position of magnetic origin             ...     0.000000     0.000000     0.000000

Properties with geometric perturbations:
SCF Hessian                             ...  NO
IR spectrum                             ...  NO
VCD spectrum                            ...  NO
X-ray spectroscopy properties:
SCF XES/XAS/RIXS spectra                ...  NO


-------------
DIPOLE MOMENT
-------------

Method             : SCF
Type of density    : Electron Density
Multiplicity       :   1
Irrep              :   0
Energy             :  -188.6205567873709299 Eh
Relativity type    : 
Basis              : AO
                                X                 Y                 Z
Electronic contribution:      0.000000156       0.000000066       0.000000036
Nuclear contribution   :      0.000000000       0.000000000       0.000000000
                        -----------------------------------------
Total Dipole Moment    :      0.000000156       0.000000066       0.000000036
                        -----------------------------------------
Magnitude (a.u.)       :      0.000000173
Magnitude (Debye)      :      0.000000440



--------------------
Rotational spectrum 
--------------------
 
Rotational constants in cm-1:             0.000000             0.389506             0.389506 
Rotational constants in MHz :             0.000000         11677.109169         11677.109169 

Dipole components along the rotational axes: 
x,y,z [a.u.] :     0.000000     0.000000     0.000000 
x,y,z [Debye]:     0.000000     0.000000     0.000000 

 

Dipole moment calculation done in   0.0 sec 

Maximum memory used throughout the entire PROP-calculation: 5.3 MB

--------------------------------
SUGGESTED CITATIONS FOR THIS RUN
--------------------------------

Below you find a list of papers that are relevant to this ORCA run
We neither can nor want to force you to cite these papers, but we appreciate if you do
You receive ORCA, which is the product of decades of hard work by many enthusiastic individuals, for free
The only thing we kindly ask in return is that you cite our papers,
We deeply appreciate it, if you show your appreciation for ORCA by not just citing the generic ORCA reference.

Please note that relegating all ORCA citations to the supporting information does *not* help us.
SI sections are not indexed - citations you put there will not count into any citation statistics
But we need these citations in order to attract the funding resources that allow us to do what we are doing

Therefore, if you are a happy ORCA user, please consider citing a few of the papers listed below in the main body of your paper

In addition to the list printed below, the program has created the file reference.wb97x.bibtex that contains the list in bibtex format
You can import this file easily into all common literature databanks and citation aid programs


List of essential papers. We consider these as the minimum necessary citations

  1. Neese,F.
     Software update: the ORCA program system, version 5.0
     WIRES Comput. Molec. Sci., 2022 12(1)e1606
     doi.org/10.1002/wcms.1606

List of papers to cite with high priority. The work reported in these papers was absolutely
necessary for this run to complete.
Our perspective: the developers of density functionals and basis sets usually get cited in chemistry papers
Good! But without the algorithms to do something with them, the functionals or basis sets would not do anything.
Hence, in our opinion, the algorithm design and method developments papers are equally worthy of getting cited

  1. Neese,F.
     An improvement of the resolution of the identity approximation for the formation of the Coulomb matrix
     J. Comp. Chem., 2003 24(14)1740-1747
     doi.org/10.1002/jcc.10318
  2. Neese,F.; Wennmohs,F.; Hansen,A.; Becker,U.
     Efficient, approximate and parallel Hartree-Fock and hybrid DFT calculations. A 'chain-of-spheres' algorithm for the Hartree-Fock exchange
     Chem. Phys., 2009 356(1-3)98-109
     doi.org/10.1016/j.chemphys.2008.10.036
  3. Helmich-Paris,B.; de Souza,B.; Neese,F.; Izsák,R.
     An improved chain of spheres for exchange algorithm
     J. Chem. Phys., 2021 155 104109
     doi.org/doi: 10.1063/5.0058766.
  4. Neese,F.
     The SHARK Integral Generation and Digestion System
     J. Comp. Chem., 2022  1-16
     doi.org/10.1002/jcc.26942

List of suggested additional citations. These are papers that are important in the 'surrounding' of 
of this run, or papers that preceded the highly important papers. If you like your results we are grateful for a citation.

  1. Izsak,R.; Neese,F.
     An overlap fitted chain of spheres exchange method
     J. Chem. Phys., 2011 135 144105
     doi.org/10.1063/1.3646921
  2. Izsak,R.; Hansen,A.; Neese,F.
     The resolution of identity and chain of spheres approximations for the LPNO-CCSD singles Fock term
     Molec. Phys., 2012 110 2413-2417
     doi.org/10.1080/00268976.2012.687466
  3. Neese,F.
     The ORCA program system
     WIRES Comput. Molec. Sci., 2012 2(1)73-78
     doi.org/10.1002/wcms.81
  4. Izsak,R.; Neese,F.; Klopper,W.
     Robust fitting techniques in the chain of spheres approximation to the Fock exchange: The role of the complementary space
     J. Chem. Phys., 2013 139 
     doi.org/10.1063/1.4819264
  5. Neese,F.
     Software update: the ORCA program system, version 4.0
     WIRES Comput. Molec. Sci., 2018 8(1)1-6
     doi.org/10.1002/wcms.1327
  6. Neese,F.; Wennmohs,F.; Becker,U.; Riplinger,C.
     The ORCA quantum chemistry program package
     J. Chem. Phys., 2020 152 Art. No. L224108
     doi.org/10.1063/5.0004608

List of optional additional citations

  1. Neese,F.
     Approximate second-order SCF convergence for spin unrestricted wavefunctions
     Chem. Phys. Lett., 2000 325(1-3)93-98
     doi.org/10.1016/s0009-2614(00)00662-x

Timings for individual modules:

Sum of individual times          ...        5.456 sec (=   0.091 min)
Startup calculation              ...        0.807 sec (=   0.013 min)  14.8 %
SCF iterations                   ...        4.296 sec (=   0.072 min)  78.7 %
Property calculations            ...        0.353 sec (=   0.006 min)   6.5 %
                             ****ORCA TERMINATED NORMALLY****
TOTAL RUN TIME: 0 days 0 hours 0 minutes 5 seconds 844 msec
