
                                 *****************
                                 * O   R   C   A *
                                 *****************

                                            #,                                       
                                            ###                                      
                                            ####                                     
                                            #####                                    
                                            ######                                   
                                           ########,                                 
                                     ,,################,,,,,                         
                               ,,#################################,,                 
                          ,,##########################################,,             
                       ,#########################################, ''#####,          
                    ,#############################################,,   '####,        
                  ,##################################################,,,,####,       
                ,###########''''           ''''###############################       
              ,#####''   ,,,,##########,,,,          '''####'''          '####       
            ,##' ,,,,###########################,,,                        '##       
           ' ,,###''''                  '''############,,,                           
         ,,##''                                '''############,,,,        ,,,,,,###''
      ,#''                                            '''#######################'''  
     '                                                          ''''####''''         
             ,#######,   #######,   ,#######,      ##                                
            ,#'     '#,  ##    ##  ,#'     '#,    #''#        ,####,   ,####,        
            ##       ##  ##   ,#'  ##            #'  '#       #'       #'  '#        
            ##       ##  #######   ##           ,######,      #####,   #    #        
            '#,     ,#'  ##    ##  '#,     ,#' ,#      #,     #,   #   #,  ,#        
             '#######'   ##     ##  '#######'  #'      '#     '####' # '####'        



                #########################################################
                #                        -***-                          #
                #          Department of theory and spectroscopy        #
                #                                                       #
                #                      Frank Neese                      #
                #                                                       #
                #     Directorship, Architecture, Infrastructure        #
                #                    SHARK, DRIVERS                     #
                #        Core code/Algorithms in most modules           #
                #                                                       #
                #        Max Planck Institute fuer Kohlenforschung      #
                #                Kaiser Wilhelm Platz 1                 #
                #                 D-45470 Muelheim/Ruhr                 #
                #                      Germany                          #
                #                                                       #
                #                  All rights reserved                  #
                #                        -***-                          #
                #########################################################


                         Program Version 6.0.1  -  RELEASE   -


 With contributions from (in alphabetic order):
[Max-Planck-Institut fuer Kohlenforschung]                               
  Daniel Aravena         : Magnetic Suceptibility                        
  Michael Atanasov       : Ab Initio Ligand Field Theory (pilot matlab implementation)
  Alexander A. Auer      : GIAO ZORA, VPT2 properties, NMR spectrum      
  Ute Becker             : All parallelization in ORCA, NUMFREQ, NUMCALC 
  Giovanni Bistoni       : ED, misc. LED, open-shell LED, HFLD           
  Martin Brehm           : Molecular dynamics                            
  Dmytro Bykov           : pre 5.0 version of the SCF Hessian            
  Marcos Casanova-Páez   : Triplet and SCS-CIS(D). UHF-(DLPNO)-IP/EA/STEOM-CCSD. UHF-CVS-IP/STEOM-CCSD   
  Vijay G. Chilkuri      : MRCI spin determinant printing, contributions to CSF-ICE 
  Pauline Colinet        : FMM embedding                                 
  Dipayan Datta          : RHF DLPNO-CCSD density                        
  Achintya Kumar Dutta   : EOM-CC, STEOM-CC                              
  Nicolas Foglia         : Exact transition moments, OPA infrastructure, MCD improvements    
  Dmitry Ganyushin       : Spin-Orbit,Spin-Spin,Magnetic field MRCI      
  Miquel Garcia-Rates    : C-PCM and meta-GGA Hessian, CCSD/C-PCM, Gaussian charge scheme 
  Tiago L. C. Gouveia    : GS-ROHF, GS-ROCIS                             
  Yang Guo               : DLPNO-NEVPT2, F12-NEVPT2, CIM, IAO-localization        
  Andreas Hansen         : Spin unrestricted coupled pair/coupled cluster methods 
  Ingolf Harden          : AUTO-CI MPn and infrastructure                
  Benjamin Helmich-Paris : MC-RPA, TRAH-(SCF,CASSCF), AVAS, COSX integrals, SCF dyn. polar. 
  Lee Huntington         : MR-EOM, pCC                                   
  Robert Izsak           : Overlap fitted RIJCOSX, COSX-SCS-MP3, EOM     
  Riya Kayal             : Wick's Theorem for AUTO-CI, AUTO-CI UHF-CCSDT 
  Emily Kempfer          : AUTO-CI, RHF CISDT and CCSDT                  
  Christian Kollmar      : KDIIS, OOCD, Brueckner-CCSD(T), CCSD density, CASPT2, CASPT2-K, improved NEVPT2 
  Axel Koslowski         : Symmetry handling                             
  Simone Kossmann        : meta-GGA functionals, TD-DFT gradient, OOMP2, (MP2 Hessian; deprecated post 5.0) 
  Lucas Lang             : DCDCAS                                        
  Marvin Lechner         : AUTO-CI (C++ implementation), FIC-MRCC        
  Spencer Leger          : CASSCF response                               
  Dagmar Lenk            : GEPOL surface, SMD, ORCA-2-JSON               
  Dimitrios Liakos       : Extrapolation schemes; Compound Job, initial MDCI parallelization 
  Dimitrios Manganas     : Further ROCIS development; embedding schemes. LFT, Crystal Embedding 
  Dimitrios Pantazis     : SARC Basis sets                               
  Anastasios Papadopoulos: AUTO-CI, single reference methods and gradients 
  Taras Petrenko         : pre 6.0 DFT Hessian and TD-DFT gradient, (ASA, deprecated), ECA, 1-Electron XAS/XES, NRVS 
  Peter Pinski           : DLPNO-MP2, DLPNO-MP2 Gradient                 
  Christoph Reimann      : Effective Core Potentials                     
  Marius Retegan         : Local ZFS, SOC                                
  Christoph Riplinger    : Optimizer, TS searches, QM/MM, DLPNO-CCSD(T), (RO)-DLPNO pert. Triples 
  Michael Roemelt        : Original ROCIS implementation                 
  Masaaki Saitow         : Open-shell DLPNO-CCSD energy and density      
  Barbara Sandhoefer     : DKH picture change effects                    
  Kantharuban Sivalingam : CASSCF convergence/infrastructure, NEVPT2 and variants, FIC-MRCI 
  Bernardo de Souza      : ESD, SOC TD-DFT                               
  Georgi L. Stoychev     : AutoAux, RI-MP2 NMR, DLPNO-MP2 response, X2C  
  Van Anh Tran           : RI-MP2 g-tensors                              
  Willem Van den Heuvel  : Paramagnetic NMR                              
  Zikuan Wang            : NOTCH, Electric field optimization            
  Frank Wennmohs         : Technical directorship and infrastructure     
  Hang Xu                : AUTO-CI-Response properties                   
                                                                         
[FACCTs GmbH]                                                            
  Markus Bursch, Miquel Garcia-Rates, Christoph Riplinger, Bernardo de Souza, Georgi L. Stoychev 
                                                                 
  APM, Basis sets (HGBS, AHGBS, def-TZVP (Ac-Lr), def2-XVPD (La-Lu)), CI-OPT, improved COSX, DLPNO-Multilevel,           
  DOCKER, DRACO, updates on ESD, GOAT, IRC, LR-CPCM, MBIS, meta-GGA TD-DFT gradient, ML-optimized integration grids, 
  MM, NACMEs, nearIR, NEB, NEB-TS, NL-DFT gradient (VV10), 2- and 3-layer-ONIOM, interface openCOSMO-RS, QMMM,   
  Crystal-QMMM, SF, symmetry and pop. for TD-DFT, r2SCAN hybrids, SOLVATOR                                   
                                                                         
[Other institutions]                                                     
  V. Asgeirsson          : NEB                                           
  Christoph Bannwarth    : sTDA-DFT, sTD-DFT, PBEh-3c, B97-3c, D3        
  Sebastian Ehlert       : rSCAN, r2SCAN, r2SCAN-3c, D4, dhf basis sets  
  Marvin Friede          : D4 for Fr, Ra, Ac-Lr                          
  Lars Goerigk           : TD-DFT with DH, B97 family of functionals     
  Stefan Grimme          : VdW corrections, initial TS optimization, DFT functionals, gCP, sTDA/sTD-DF 
  Waldemar Hujo          : DFT-NL                                        
  H. Jonsson             : NEB                                           
  Holger Kruse           : gCP                                           
  Marcel Mueller         : wB97X-3c, vDZP basis set                      
  Hagen Neugebauer       : wr2SCAN                                       
  Tobias Risthaus        : range-separated hybrid DFT                    
  Lukas Wittmann         : regularized MP2, r2SCAN double-hybrids, wr2SCAN        
                                                                         
We gratefully acknowledge several colleagues who have allowed us to      
interface, adapt or use parts of their codes:                            
  Ed Valeev, F. Pavosevic, A. Kumar             : LibInt (2-el integral package), F12 methods 
  Garnet Chan, S. Sharma, J. Yang, R. Olivares  : DMRG                   
  Ulf Ekstrom                                   : XCFun DFT Library      
  Mihaly Kallay                                 : mrcc  (arbitrary order and MRCC methods)
  Frank Weinhold                                : gennbo (NPA and NBO analysis)           
  Simon Mueller                                 : openCOSMO-RS                            
  Christopher J. Cramer and Donald G. Truhlar   : smd solvation model                     
  S Lehtola, MJT Oliveira, MAL Marques          : LibXC Library                           
  Liviu Ungur et al                             : ANISO software                          


 Your calculation uses the libint2 library for the computation of 2-el integrals
 For citations please refer to: http://libint.valeyev.net

 Your ORCA version has been built with support for libXC version: 6.2.2
 For citations please refer to: https://libxc.gitlab.io

 This ORCA versions uses:
   CBLAS   interface :  Fast vector & matrix operations
   LAPACKE interface :  Fast linear algebra routines
   SCALAPACK package :  Parallel linear algebra routines
   Shared memory     :  Shared parallel matrices
   BLAS/LAPACK       :  OpenBLAS 0.3.27  USE64BITINT DYNAMIC_ARCH NO_AFFINITY SkylakeX SINGLE_THREADED
        Core in use  :  SkylakeX
   Copyright (c) 2011-2014, The OpenBLAS Project




***************************************
The coordinates will be read from file: opt.xyz
***************************************


XCFun DFT library Copyright 2009-2010 Ulf Ekstrom and contributors.
See http://admol.org/xcfun for more information.
This is free software; see the source code for copying conditions.
There is ABSOLUTELY NO WARRANTY; not even for MERCHANTABILITY or FITNESS FOR A PARTICULAR PURPOSE.
For details see the documentation.
Scientific users of this library should cite U. Ekstrom, L. Visscher, R. Bast, A. J. Thorvaldsen and K. Ruud;
J.Chem.Theor.Comp. 2010, DOI: 10.1021/ct100117s
XCFun Version 0.99 

================================================================================

----- Orbital basis set information -----
Your calculation utilizes the basis: def2-TZVPD
   F. Weigend and R. Ahlrichs, Phys. Chem. Chem. Phys. 7, 3297 (2005).
   D. Rappoport and F. Furche, J. Chem. Phys. 133, 134105 (2010)
   D. Rappoport, J. Chem. Phys. 155, 124102 (2021).

----- AuxJ basis set information -----
Your calculation utilizes the auxiliary basis: def2/J
   F. Weigend, Phys. Chem. Chem. Phys. 8, 1057 (2006).

================================================================================
                                        WARNINGS
                       Please study these warnings very carefully!
================================================================================


================================================================================
                                       INPUT FILE
================================================================================
NAME = scf.wb97x.inp
|  1> ! wB97x def2-TZVPD def2/J
|  2> 
|  3> %pal nprocs 4 end
|  4> 
|  5> %output Print[P_ReducedOrbPopMO_L] 1 end
|  6> 
|  7> * xyzfile 0 1 opt.xyz
|  8> 
|  9>                          ****END OF INPUT****
================================================================================

                       ****************************
                       * Single Point Calculation *
                       ****************************

---------------------------------
CARTESIAN COORDINATES (ANGSTROEM)
---------------------------------
  C      2.702600    0.689523   -0.145928
  H      3.670345    1.191912   -0.175981
  H      2.686294    0.026283    0.719168
  H      2.599061    0.087695   -1.048909
  C      1.606415    1.719310   -0.054840
  H      1.681207    2.325971    0.848839
  H      1.597548    2.391508   -0.914412
  O      0.347047    1.013989   -0.022341
  C     -0.734084    1.760161    0.086863
  O     -0.786454    2.949773    0.164472
  C     -1.993808    0.858488    0.089849
  F     -1.906614   -0.076167    1.038669
  F     -3.080715    1.580352    0.309364
  F     -2.123108    0.244631   -1.089872

----------------------------
CARTESIAN COORDINATES (A.U.)
----------------------------
  NO LB      ZA    FRAG     MASS         X           Y           Z
   0 C     6.0000    0    12.011    5.107174    1.303011   -0.275763
   1 H     1.0000    0     1.008    6.935948    2.252388   -0.332557
   2 H     1.0000    0     1.008    5.076361    0.049668    1.359030
   3 H     1.0000    0     1.008    4.911513    0.165720   -1.982151
   4 C     6.0000    0    12.011    3.035684    3.249026   -0.103632
   5 H     1.0000    0     1.008    3.177020    4.395449    1.604073
   6 H     1.0000    0     1.008    3.018929    4.519294   -1.727989
   7 O     8.0000    0    15.999    0.655823    1.916162   -0.042218
   8 C     6.0000    0    12.011   -1.387217    3.326222    0.164148
   9 O     8.0000    0    15.999   -1.486183    5.574263    0.310807
  10 C     6.0000    0    12.011   -3.767751    1.622307    0.169791
  11 F     9.0000    0    18.998   -3.602978   -0.143934    1.962800
  12 F     9.0000    0    18.998   -5.821708    2.986433    0.584613
  13 F     9.0000    0    18.998   -4.012092    0.462285   -2.059559

--------------------------------
INTERNAL COORDINATES (ANGSTROEM)
--------------------------------
 C      0   0   0     0.000000000000     0.00000000     0.00000000
 H      1   0   0     1.090792508287     0.00000000     0.00000000
 H      1   2   0     1.090203702586   108.38062614     0.00000000
 H      1   2   3     1.090088518652   108.40446712   242.22709268
 C      1   2   3     1.506778404623   109.41028889   121.05509859
 H      5   1   2     1.090993391539   112.34812579   298.81683955
 H      5   1   2     1.091234657857   112.28952852    60.91241413
 O      5   1   2     1.443794037108   107.58153879   179.80170607
 C      8   5   1     1.318158123706   116.15127605   178.56612450
 O      9   8   5     1.193290646740   127.27998865   359.82346144
 C      9   8   5     1.549170101852   109.73229289   179.30608416
 F     11   9   8     1.334706346905   110.84434478    54.46812213
 F     11   9   8     1.323118419520   110.53405632   174.84707178
 F     11   9   8     1.336144168544   110.14457596   294.76072368

---------------------------
INTERNAL COORDINATES (A.U.)
---------------------------
 C      0   0   0     0.000000000000     0.00000000     0.00000000
 H      1   0   0     2.061299109596     0.00000000     0.00000000
 H      1   2   0     2.060186428075   108.38062614     0.00000000
 H      1   2   3     2.059968761984   108.40446712   242.22709268
 C      1   2   3     2.847398529245   109.41028889   121.05509859
 H      5   1   2     2.061678723926   112.34812579   298.81683955
 H      5   1   2     2.062134651194   112.28952852    60.91241413
 O      5   1   2     2.728375323923   107.58153879   179.80170607
 C      8   5   1     2.490957855007   116.15127605   178.56612450
 O      9   8   5     2.254992520509   127.27998865   359.82346144
 C      9   8   5     2.927507227358   109.73229289   179.30608416
 F     11   9   8     2.522229464858   110.84434478    54.46812213
 F     11   9   8     2.500331455639   110.53405632   174.84707178
 F     11   9   8     2.524946553984   110.14457596   294.76072368

---------------------
BASIS SET INFORMATION
---------------------
There are 4 groups of distinct atoms

 Group   1 Type C   : 12s6p3d1f contracted to 6s3p3d1f pattern {621111/411/111/1}
 Group   2 Type H   : 5s2p contracted to 3s2p pattern {311/11}
 Group   3 Type O   : 12s7p3d1f contracted to 6s4p3d1f pattern {621111/4111/111/1}
 Group   4 Type F   : 12s7p3d1f contracted to 6s4p3d1f pattern {621111/4111/111/1}

Atom   0C    basis set group =>   1
Atom   1H    basis set group =>   2
Atom   2H    basis set group =>   2
Atom   3H    basis set group =>   2
Atom   4C    basis set group =>   1
Atom   5H    basis set group =>   2
Atom   6H    basis set group =>   2
Atom   7O    basis set group =>   3
Atom   8C    basis set group =>   1
Atom   9O    basis set group =>   3
Atom  10C    basis set group =>   1
Atom  11F    basis set group =>   4
Atom  12F    basis set group =>   4
Atom  13F    basis set group =>   4
---------------------------------
AUXILIARY/J BASIS SET INFORMATION
---------------------------------
There are 4 groups of distinct atoms

 Group   1 Type C   : 12s5p4d2f1g contracted to 6s4p3d1f1g pattern {711111/2111/211/2/1}
 Group   2 Type H   : 5s2p1d contracted to 3s1p1d pattern {311/2/1}
 Group   3 Type O   : 12s5p4d2f1g contracted to 6s4p3d1f1g pattern {711111/2111/211/2/1}
 Group   4 Type F   : 12s5p4d2f1g contracted to 6s4p3d1f1g pattern {711111/2111/211/2/1}

Atom   0C    basis set group =>   1
Atom   1H    basis set group =>   2
Atom   2H    basis set group =>   2
Atom   3H    basis set group =>   2
Atom   4C    basis set group =>   1
Atom   5H    basis set group =>   2
Atom   6H    basis set group =>   2
Atom   7O    basis set group =>   3
Atom   8C    basis set group =>   1
Atom   9O    basis set group =>   3
Atom  10C    basis set group =>   1
Atom  11F    basis set group =>   4
Atom  12F    basis set group =>   4
Atom  13F    basis set group =>   4


           ************************************************************
           *        Program running with 4 parallel MPI-processes     *
           *              working on a common directory               *
           ************************************************************
------------------------------------------------------------------------------
                             ORCA STARTUP CALCULATIONS
                           -- RI-GTO INTEGRALS CHOSEN --
------------------------------------------------------------------------------
------------------------------------------------------------------------------
                   ___                                                        
                  /   \      - P O W E R E D   B Y -                         
                 /     \                                                     
                 |  |  |   _    _      __       _____    __    __             
                 |  |  |  | |  | |    /  \     |  _  \  |  |  /  |          
                  \  \/   | |  | |   /    \    | | | |  |  | /  /          
                 / \  \   | |__| |  /  /\  \   | |_| |  |  |/  /          
                |  |  |   |  __  | /  /__\  \  |    /   |      \           
                |  |  |   | |  | | |   __   |  |    \   |  |\   \          
                \     /   | |  | | |  |  |  |  | |\  \  |  | \   \       
                 \___/    |_|  |_| |__|  |__|  |_| \__\ |__|  \__/        
                                                                              
                      - O R C A' S   B I G   F R I E N D -                    
                                      &                                       
                       - I N T E G R A L  F E E D E R -                       
                                                                              
 v1 FN, 2020, v2 2021, v3 2022-2024                                           
------------------------------------------------------------------------------


----------------------
SHARK INTEGRAL PACKAGE
----------------------

Number of atoms                             ...     14
Number of basis functions                   ...    393
Number of shells                            ...    147
Maximum angular momentum                    ...      3
Integral batch strategy                     ... SHARK/LIBINT Hybrid
RI-J (if used) integral strategy            ... SPLIT-RIJ (Revised 2003 algorithm where possible)
Printlevel                                  ...      1
Contraction scheme used                     ... SEGMENTED contraction
Prescreening option                         ... SCHWARTZ
   Thresh                                   ... 1.000e-10
   Tcut                                     ... 1.000e-11
   Tpresel                                  ... 1.000e-11 
Coulomb Range Separation                    ... NOT USED
Exchange Range Separation                   ... Long Range
   Mu parameter                             ... 3.000e-01
   Scaling (regular/separated)              ... 1.577e-01 8.423e-01
Multipole approximations                    ... NOT USED
Finite Nucleus Model                        ... NOT USED
CABS basis                                  ... NOT available
Auxiliary Coulomb fitting basis             ... AVAILABLE
   # of basis functions in Aux-J            ...    496
   # of shells in Aux-J                     ...    160
   Maximum angular momentum in Aux-J        ...      4
Auxiliary J/K fitting basis                 ... NOT available
Auxiliary Correlation fitting basis         ... NOT available
Auxiliary 'external' fitting basis          ... NOT available

Checking pre-screening integrals            ... done (  0.0 sec) Dimension = 147
Check shell pair data                       ... done (  0.0 sec)
Shell pair information
Shell pair cut-off parameter TPreSel        ...   1.0e-11
Total number of shell pairs                 ...     10878
Shell pairs after pre-screening             ...      9725
Total number of primitive shell pairs       ...     28654
Primitive shell pairs kept                  ...     19811
          la=0 lb=0:   2045 shell pairs
          la=1 lb=0:   2634 shell pairs
          la=1 lb=1:    855 shell pairs
          la=2 lb=0:   1660 shell pairs
          la=2 lb=1:   1067 shell pairs
          la=2 lb=2:    359 shell pairs
          la=3 lb=0:    511 shell pairs
          la=3 lb=1:    337 shell pairs
          la=3 lb=2:    217 shell pairs
          la=3 lb=3:     40 shell pairs

Calculating one electron integrals          ... done (  0.0 sec)
Calculating RI/J V-Matrix + Cholesky decomp.... done (  0.0 sec)
Calculating Nuclear repulsion               ... done (  0.0 sec) ENN=    501.755175243768 Eh

Diagonalization of the overlap matrix:
Smallest eigenvalue                        ... 5.807e-06
Time for diagonalization                   ...    0.023 sec
Threshold for overlap eigenvalues          ... 1.000e-07
Number of eigenvalues below threshold      ... 0
Time for construction of square roots      ...    0.010 sec
Total time needed                          ...    0.035 sec

-------------------
DFT GRID GENERATION
-------------------

General Integration Accuracy     IntAcc      ... 4.388
Radial Grid Type                 RadialGrid  ... OptM3 with GC (2021)
Angular Grid (max. ang.)         AngularGrid ... 4 (Lebedev-302)
Angular grid pruning method      GridPruning ... 4 (adaptive)
Weight generation scheme         WeightScheme... mBecke (2022)
Basis function cutoff            BFCut       ... 1.0000e-10
Integration weight cutoff        WCut        ... 1.0000e-14
Partially contracted basis set               ... off
Rotationally invariant grid construction     ... off
Angular grids for H and He will be reduced by one unit
Diffuse basis detected: some atoms will have their outermost
                        angular grid increased by 1.

Total number of grid points                  ...    74424
Total number of batches                      ...     1169
Average number of points per batch           ...       63
Average number of grid points per atom       ...     5316

--------------------
COSX GRID GENERATION
--------------------

GRIDX 1
-------
General Integration Accuracy     IntAcc      ... 3.816
Radial Grid Type                 RadialGrid  ... OptM3 with GC (2021)
Angular Grid (max. ang.)         AngularGrid ... 1 (Lebedev-50)
Angular grid pruning method      GridPruning ... 4 (adaptive)
Weight generation scheme         WeightScheme... mBecke (2022)
Basis function cutoff            BFCut       ... 1.0000e-10
Integration weight cutoff        WCut        ... 1.0000e-14
Partially contracted basis set               ... on
Rotationally invariant grid construction     ... off
Angular grids for H and He will be reduced by one unit
Diffuse basis detected: some atoms will have their outermost
                        angular grid increased by 1.

Total number of grid points                  ...     9368
Total number of batches                      ...       83
Average number of points per batch           ...      112
Average number of grid points per atom       ...      669
UseSFitting                                  ... on

GRIDX 2
-------
General Integration Accuracy     IntAcc      ... 4.020
Radial Grid Type                 RadialGrid  ... OptM3 with GC (2021)
Angular Grid (max. ang.)         AngularGrid ... 2 (Lebedev-110)
Angular grid pruning method      GridPruning ... 4 (adaptive)
Weight generation scheme         WeightScheme... mBecke (2022)
Basis function cutoff            BFCut       ... 1.0000e-10
Integration weight cutoff        WCut        ... 1.0000e-14
Partially contracted basis set               ... on
Rotationally invariant grid construction     ... off
Angular grids for H and He will be reduced by one unit
Diffuse basis detected: some atoms will have their outermost
                        angular grid increased by 1.

Total number of grid points                  ...    23844
Total number of batches                      ...      193
Average number of points per batch           ...      123
Average number of grid points per atom       ...     1703
UseSFitting                                  ... on

GRIDX 3
-------
General Integration Accuracy     IntAcc      ... 4.338
Radial Grid Type                 RadialGrid  ... OptM3 with GC (2021)
Angular Grid (max. ang.)         AngularGrid ... 3 (Lebedev-194)
Angular grid pruning method      GridPruning ... 4 (adaptive)
Weight generation scheme         WeightScheme... mBecke (2022)
Basis function cutoff            BFCut       ... 1.0000e-10
Integration weight cutoff        WCut        ... 1.0000e-14
Partially contracted basis set               ... on
Rotationally invariant grid construction     ... off
Angular grids for H and He will be reduced by one unit
Diffuse basis detected: some atoms will have their outermost
                        angular grid increased by 1.

Total number of grid points                  ...    52460
Total number of batches                      ...      416
Average number of points per batch           ...      126
Average number of grid points per atom       ...     3747
UseSFitting                                  ... on
Initializing property integral containers    ... done (  0.0 sec)

SHARK setup successfully completed in   1.7 seconds

Maximum memory used throughout the entire STARTUP-calculation: 34.4 MB


           ************************************************************
           *        Program running with 4 parallel MPI-processes     *
           *              working on a common directory               *
           ************************************************************
-------------------------------------------------------------------------------
                                 ORCA GUESS
                   Start orbitals & Density for SCF / CASSCF
-------------------------------------------------------------------------------

------------
SCF SETTINGS
------------
Hamiltonian:
 Density Functional     Method          .... DFT(GTOs)
 Exchange Functional    Exchange        .... WB97X
 Correlation Functional Correlation     .... WB97X
 Gradients option       PostSCFGGA      .... off
 Hybrid DFT is turned on
   Fraction HF Exchange ScalHFX         ....  0.157706
   Scaling of DF-GGA-X  ScalDFX         ....  0.000000
   Scaling of DF-GGA-C  ScalDFC         ....  1.000000
   Scaling of DF-LDA-C  ScalLDAC        ....  1.000000
   Perturbative correction              ....  0.000000
 Long-range corrected/Screened/Range-Separated Hybrid DFT is turned on
   Amount of maximum screened exact exchange              ....  0.842294
   Range separation parameter mu (erf(mu*r12)/r12)        ....  0.300000
 RI-approximation to the Coulomb term is turned on
   Number of AuxJ basis functions       .... 496
   RIJ-COSX (HFX calculated with COS-X)).... on


General Settings:
 Integral files         IntName         .... scf.wb97x
 Hartree-Fock type      HFTyp           .... RHF
 Total Charge           Charge          ....    0
 Multiplicity           Mult            ....    1
 Number of Electrons    NEL             ....   72
 Basis Dimension        Dim             ....  393
 Nuclear Repulsion      ENuc            ....    501.7551752438 Eh

Convergence Acceleration:
 AO-DIIS                CNVDIIS         .... on
   Start iteration      DIISMaxIt       ....    12
   Startup error        DIISStart       ....  0.200000
   # of expansion vecs  DIISMaxEq       ....     5
   Bias factor          DIISBfac        ....   1.050
   Max. coefficient     DIISMaxC        ....  10.000
 MO-DIIS                CNVKDIIS        .... off
 Trust-Rad. Augm. Hess. CNVTRAH         .... auto
   Auto Start mean grad. ratio tolernc. ....  1.125000
   Auto Start start iteration           ....    50
   Auto Start num. interpolation iter.  ....    10
   Max. Number of Micro iterations      ....    24
   Max. Number of Macro iterations      .... Maxiter - #DIIS iter
   Number of Davidson start vectors     ....     2
   Converg. threshold    (grad. norm)   ....   5.000e-05
   Grad. Scal. Fac. for Micro threshold ....   0.100
   Minimum threshold for Micro iter.    ....   1.000e-02
   NR start threshold (gradient norm)   ....   1.000e-04
   Initial trust radius                 ....   0.400
   Minimum AH scaling param. (alpha)    ....   1.000
   Maximum AH scaling param. (alpha)    .... 1000.000
   Quad. conv. algorithm                .... NR
   White noise on init. David. guess    .... on
   Maximum white noise                  ....   0.010
   Pseudo random numbers                .... off
   Inactive MOs                         .... canonical
   Orbital update algorithm             .... Taylor
   Preconditioner                       .... Diag
   Full preconditioner red. dimension   ....   250
 SOSCF                  CNVSOSCF        .... on
   Start iteration      SOSCFMaxIt      ....   150
   Startup grad/error   SOSCFStart      ....  0.003300
   Hessian update       SOSCFHessUp     .... L-BFGS
 Level Shifting         CNVShift        .... on
   Level shift para.    LevelShift      ....    0.2500
   Turn off err/grad.   ShiftErr        ....    0.0010
 Zerner damping         CNVZerner       .... off
 Static damping         CNVDamp         .... on
   Fraction old density DampFac         ....    0.7000
   Max. Damping (<1)    DampMax         ....    0.9800
   Min. Damping (>=0)   DampMin         ....    0.0000
   Turn off err/grad.   DampErr         ....    0.1000

SCF Procedure:
 Maximum # iterations   MaxIter         ....   125
 SCF integral mode      SCFMode         .... Direct
   Integral package                     .... SHARK and LIBINT hybrid scheme
 Reset frequency        DirectResetFreq ....    20
 Integral Threshold     Thresh          ....  1.000e-10 Eh
 Primitive CutOff       TCut            ....  1.000e-11 Eh

Convergence Tolerance:
 Convergence Check Mode ConvCheckMode   .... Total+1el-Energy
 Convergence forced     ConvForced      .... 0
 Energy Change          TolE            ....  1.000e-06 Eh
 1-El. energy change                    ....  1.000e-03 Eh
 Orbital Gradient       TolG            ....  5.000e-05
 Orbital Rotation angle TolX            ....  5.000e-05
 DIIS Error             TolErr          ....  1.000e-06

------------------------------
INITIAL GUESS: MODEL POTENTIAL
------------------------------
Loading Hartree-Fock densities                     ... done
Calculating cut-offs                               ... done
Initializing the effective Hamiltonian             ... done
Setting up the integral package (SHARK)            ... done
Starting the Coulomb interaction                   ... done (   0.2 sec)
Making the grid                                    ... done (   0.2 sec)
Mapping shells                                     ... done
Starting the XC term evaluation                    ... done (   0.2 sec)
  promolecular density results
     # of electrons  =     71.996794473
     EX              =    -68.269489872
     EC              =     -2.463672173
     EX+EC           =    -70.733162045
Transforming the Hamiltonian                       ... done (   0.0 sec)
Diagonalizing the Hamiltonian                      ... done (   0.0 sec)
Back transforming the eigenvectors                 ... done (   0.0 sec)
Now organizing SCF variables                       ... done
                      ------------------
                      INITIAL GUESS DONE (   0.6 sec)
                      ------------------
             **** ENERGY FILE WAS UPDATED (scf.wb97x.en.tmp) ****
Finished Guess after   0.9 sec
Maximum memory used throughout the entire GUESS-calculation: 26.0 MB


           ************************************************************
           *        Program running with 4 parallel MPI-processes     *
           *              working on a common directory               *
           ************************************************************

-------------------------------------------------------------------------------------------
                                      ORCA LEAN-SCF
                              memory conserving SCF solver
-------------------------------------------------------------------------------------------

----------------------------------------D-I-I-S--------------------------------------------
Iteration    Energy (Eh)           Delta-E    RMSDP     MaxDP     DIISErr   Damp  Time(sec)
-------------------------------------------------------------------------------------------
               ***  Starting incremental Fock matrix formation  ***
    1    -605.3111998153802915     0.00e+00  1.69e-03  7.78e-02  2.84e-01  0.700   8.4
    2    -605.4153260807491961    -1.04e-01  1.23e-03  5.97e-02  1.32e-01  0.700   3.8
                               ***Turning on AO-DIIS***
    3    -605.4595264005778290    -4.42e-02  7.33e-04  4.46e-02  5.57e-02  0.700   3.8
    4    -605.4866387654282107    -2.71e-02  1.57e-03  1.05e-01  3.23e-02  0.000   3.6
    5    -605.5467950233870624    -6.02e-02  2.23e-04  2.46e-02  7.30e-03  0.000   3.8
                              *** Initializing SOSCF ***
---------------------------------------S-O-S-C-F--------------------------------------
Iteration    Energy (Eh)           Delta-E    RMSDP     MaxDP     MaxGrad    Time(sec)
--------------------------------------------------------------------------------------
    6    -605.5469528045040306    -1.58e-04  6.90e-05  6.92e-03  2.66e-03     3.5
               *** Restarting incremental Fock matrix formation ***
    7    -605.5469813856499286    -2.86e-05  5.44e-05  5.69e-03  7.55e-04     8.4
    8    -605.5469878335599105    -6.45e-06  5.66e-05  5.41e-03  2.52e-04     6.4
    9    -605.5469893980645111    -1.56e-06  2.35e-05  2.13e-03  1.30e-04     6.5
   10    -605.5469901121915655    -7.14e-07  1.21e-05  1.09e-03  2.28e-05     6.1
                 **** Energy Check signals convergence ****

               *****************************************************
               *                     SUCCESS                       *
               *           SCF CONVERGED AFTER  10 CYCLES          *
               *****************************************************

Recomputing exchange energy using gridx3       ... done (   15.225 sec)
Old exchange energy                            :    -20.583437900 Eh
New exchange energy                            :    -20.583415048 Eh
Exchange energy change after final integration :      0.000022853 Eh
Total energy after final integration           :   -605.546967259 Eh
             **** ENERGY FILE WAS UPDATED (scf.wb97x.en.tmp) ****

----------------
TOTAL SCF ENERGY
----------------

Total Energy       :       -605.54696725938516 Eh          -16477.77069 eV

Components:
Nuclear Repulsion  :        501.75517524376812 Eh           13653.45245 eV
Electronic Energy  :      -1107.30216535595946 Eh          -30131.22376 eV
One Electron Energy:      -1830.57716450735143 Eh          -49812.53707 eV
Two Electron Energy:        723.27499915139185 Eh           19681.31331 eV

Virial components:
Potential Energy   :      -1209.12498478388056 Eh          -32901.96354 eV
Kinetic Energy     :        603.57801752449541 Eh           16424.19285 eV
Virial Ratio       :          2.00326212962984

DFT components:
N(Alpha)           :       35.999947404283 electrons
N(Beta)            :       35.999947404283 electrons
N(Total)           :       71.999894808565 electrons
E(XC)              :      -51.524421035575 Eh       

---------------
SCF CONVERGENCE
---------------

  Last Energy change         ...    7.1413e-07  Tolerance :   1.0000e-06
  Last MAX-Density change    ...    1.0939e-03  Tolerance :   1.0000e-05
  Last RMS-Density change    ...    1.2144e-05  Tolerance :   1.0000e-06
  Last DIIS Error            ...    2.6624e-03  Tolerance :   1.0000e-06
  Last Orbital Gradient      ...    2.2763e-05  Tolerance :   5.0000e-05
  Last Orbital Rotation      ...    2.0216e-05  Tolerance :   5.0000e-05


----------------
ORBITAL ENERGIES
----------------

  NO   OCC          E(Eh)            E(eV) 
   0   2.0000     -24.788810      -674.5378 
   1   2.0000     -24.788617      -674.5326 
   2   2.0000     -24.787833      -674.5112 
   3   2.0000     -19.274652      -524.4899 
   4   2.0000     -19.217604      -522.9376 
   5   2.0000     -10.527704      -286.4734 
   6   2.0000     -10.422765      -283.6179 
   7   2.0000     -10.337819      -281.3064 
   8   2.0000     -10.269540      -279.4484 
   9   2.0000      -1.464467       -39.8502 
  10   2.0000      -1.371463       -37.3194 
  11   2.0000      -1.370252       -37.2865 
  12   2.0000      -1.276362       -34.7316 
  13   2.0000      -1.186709       -32.2920 
  14   2.0000      -0.942996       -25.6602 
  15   2.0000      -0.878532       -23.9061 
  16   2.0000      -0.801589       -21.8123 
  17   2.0000      -0.750263       -20.4157 
  18   2.0000      -0.730908       -19.8890 
  19   2.0000      -0.728274       -19.8173 
  20   2.0000      -0.706080       -19.2134 
  21   2.0000      -0.643368       -17.5069 
  22   2.0000      -0.617972       -16.8159 
  23   2.0000      -0.601463       -16.3666 
  24   2.0000      -0.600151       -16.3309 
  25   2.0000      -0.582935       -15.8625 
  26   2.0000      -0.573158       -15.5964 
  27   2.0000      -0.561889       -15.2898 
  28   2.0000      -0.549268       -14.9463 
  29   2.0000      -0.538720       -14.6593 
  30   2.0000      -0.526999       -14.3404 
  31   2.0000      -0.516821       -14.0634 
  32   2.0000      -0.491378       -13.3711 
  33   2.0000      -0.485581       -13.2133 
  34   2.0000      -0.439583       -11.9617 
  35   2.0000      -0.418666       -11.3925 
  36   0.0000       0.056669         1.5420 
  37   0.0000       0.063266         1.7216 
  38   0.0000       0.085086         2.3153 
  39   0.0000       0.091223         2.4823 
  40   0.0000       0.101669         2.7665 
  41   0.0000       0.112656         3.0655 
  42   0.0000       0.118485         3.2241 
  43   0.0000       0.132221         3.5979 
  44   0.0000       0.133072         3.6211 
  45   0.0000       0.142470         3.8768 
  46   0.0000       0.146905         3.9975 
*Only the first 10 virtual orbitals were printed.

                    ********************************
                    * MULLIKEN POPULATION ANALYSIS *
                    ********************************

-----------------------
MULLIKEN ATOMIC CHARGES
-----------------------
   0 C :   -1.164059
   1 H :    0.361537
   2 H :    0.303742
   3 H :    0.306299
   4 C :   -0.188680
   5 H :    0.307341
   6 H :    0.309517
   7 O :   -0.192391
   8 C :    0.333395
   9 O :   -0.527765
  10 C :    0.925284
  11 F :   -0.262969
  12 F :   -0.247822
  13 F :   -0.263428
Sum of atomic charges:    0.0000000

--------------------------------
MULLIKEN REDUCED ORBITAL CHARGES
--------------------------------
  0 C s       :     3.499234  s :     3.499234
      pz      :     1.322345  p :     3.612326
      px      :     1.144352
      py      :     1.145628
      dz2     :     0.022189  d :     0.049662
      dxz     :    -0.012768
      dyz     :     0.023696
      dx2y2   :    -0.002004
      dxy     :     0.018549
      f0      :     0.000346  f :     0.002838
      f+1     :    -0.000003
      f-1     :     0.000824
      f+2     :    -0.000228
      f-2     :     0.000602
      f+3     :     0.000571
      f-3     :     0.000727

  1 H s       :     0.583831  s :     0.583831
      pz      :     0.018160  p :     0.054633
      px      :     0.031290
      py      :     0.005183

  2 H s       :     0.639112  s :     0.639112
      pz      :     0.025929  p :     0.057145
      px      :     0.007650
      py      :     0.023567

  3 H s       :     0.637893  s :     0.637893
      pz      :     0.028037  p :     0.055808
      px      :     0.005838
      py      :     0.021934

  4 C s       :     3.318483  s :     3.318483
      pz      :     1.226825  p :     2.837398
      px      :     0.669511
      py      :     0.941062
      dz2     :    -0.003907  d :     0.023311
      dxz     :    -0.020187
      dyz     :     0.050580
      dx2y2   :    -0.012141
      dxy     :     0.008966
      f0      :     0.001242  f :     0.009488
      f+1     :     0.000533
      f-1     :     0.001089
      f+2     :     0.000347
      f-2     :     0.001633
      f+3     :     0.002591
      f-3     :     0.002053

  5 H s       :     0.659842  s :     0.659842
      pz      :     0.017571  p :     0.032817
      px      :     0.011443
      py      :     0.003802

  6 H s       :     0.657138  s :     0.657138
      pz      :     0.016508  p :     0.033345
      px      :     0.010542
      py      :     0.006295

  7 O s       :     3.799594  s :     3.799594
      pz      :     1.717847  p :     4.386350
      px      :     1.135984
      py      :     1.532520
      dz2     :    -0.001855  d :     0.004285
      dxz     :     0.004376
      dyz     :     0.003369
      dx2y2   :    -0.016127
      dxy     :     0.014522
      f0      :     0.000306  f :     0.002162
      f+1     :     0.000393
      f-1     :     0.000172
      f+2     :     0.000091
      f-2     :     0.000286
      f+3     :     0.000445
      f-3     :     0.000469

  8 C s       :     3.153598  s :     3.153598
      pz      :     0.738887  p :     2.183572
      px      :     0.756721
      py      :     0.687964
      dz2     :     0.007529  d :     0.304345
      dxz     :     0.054568
      dyz     :     0.067963
      dx2y2   :     0.043116
      dxy     :     0.131169
      f0      :     0.003266  f :     0.025090
      f+1     :     0.001376
      f-1     :     0.001794
      f+2     :     0.002952
      f-2     :     0.002416
      f+3     :     0.009769
      f-3     :     0.003518

  9 O s       :     4.001766  s :     4.001766
      pz      :     1.391345  p :     4.483861
      px      :     1.804526
      py      :     1.287989
      dz2     :     0.003234  d :     0.040176
      dxz     :    -0.000686
      dyz     :     0.017633
      dx2y2   :     0.012410
      dxy     :     0.007585
      f0      :     0.000204  f :     0.001962
      f+1     :     0.000022
      f-1     :     0.000163
      f+2     :     0.000520
      f-2     :     0.000019
      f+3     :     0.000614
      f-3     :     0.000419

 10 C s       :     3.063949  s :     3.063949
      pz      :     0.470258  p :     1.546810
      px      :     0.570971
      py      :     0.505581
      dz2     :     0.097665  d :     0.422481
      dxz     :     0.077808
      dyz     :     0.065824
      dx2y2   :     0.080612
      dxy     :     0.100572
      f0      :     0.007865  f :     0.041475
      f+1     :     0.005198
      f-1     :     0.006250
      f+2     :     0.004664
      f-2     :     0.007752
      f+3     :     0.006202
      f-3     :     0.003543

 11 F s       :     4.006814  s :     4.006814
      pz      :     1.660262  p :     5.243505
      px      :     1.921174
      py      :     1.662069
      dz2     :    -0.000087  d :     0.011895
      dxz     :     0.001682
      dyz     :     0.006861
      dx2y2   :     0.003305
      dxy     :     0.000135
      f0      :     0.000091  f :     0.000755
      f+1     :     0.000027
      f-1     :     0.000235
      f+2     :     0.000193
      f-2     :     0.000112
      f+3     :     0.000049
      f-3     :     0.000049

 12 F s       :     4.012981  s :     4.012981
      pz      :     1.895450  p :     5.223393
      px      :     1.559191
      py      :     1.768752
      dz2     :     0.001450  d :     0.010650
      dxz     :     0.001541
      dyz     :    -0.000588
      dx2y2   :     0.002252
      dxy     :     0.005995
      f0      :     0.000070  f :     0.000798
      f+1     :     0.000104
      f-1     :     0.000054
      f+2     :     0.000031
      f-2     :     0.000118
      f+3     :     0.000177
      f-3     :     0.000244

 13 F s       :     4.005368  s :     4.005368
      pz      :     1.522710  p :     5.245616
      px      :     1.915519
      py      :     1.807387
      dz2     :     0.003641  d :     0.011695
      dxz     :     0.001899
      dyz     :     0.004513
      dx2y2   :     0.001755
      dxy     :    -0.000113
      f0      :     0.000187  f :     0.000750
      f+1     :     0.000091
      f-1     :     0.000278
      f+2     :     0.000089
      f-2     :     0.000085
      f+3     :     0.000012
      f-3     :     0.000009



                     *******************************
                     * LOEWDIN POPULATION ANALYSIS *
                     *******************************

----------------------
LOEWDIN ATOMIC CHARGES
----------------------
   0 C :   -0.068738
   1 H :    0.083243
   2 H :    0.083680
   3 H :    0.083516
   4 C :   -0.199295
   5 H :    0.130816
   6 H :    0.131703
   7 O :    0.032826
   8 C :   -0.406124
   9 O :    0.170042
  10 C :   -0.556589
  11 F :    0.168376
  12 F :    0.178723
  13 F :    0.167824

-------------------------------
LOEWDIN REDUCED ORBITAL CHARGES
-------------------------------
  0 C s       :     2.725895  s :     2.725895
      pz      :     0.979684  p :     2.892086
      px      :     0.948561
      py      :     0.963841
      dz2     :     0.059852  d :     0.424121
      dxz     :     0.039721
      dyz     :     0.134382
      dx2y2   :     0.089602
      dxy     :     0.100565
      f0      :     0.002449  f :     0.026635
      f+1     :     0.003042
      f-1     :     0.004661
      f+2     :     0.002589
      f-2     :     0.004000
      f+3     :     0.004114
      f-3     :     0.005780

  1 H s       :     0.702084  s :     0.702084
      pz      :     0.057663  p :     0.214674
      px      :     0.092268
      py      :     0.064742

  2 H s       :     0.702087  s :     0.702087
      pz      :     0.089540  p :     0.214232
      px      :     0.053783
      py      :     0.070909

  3 H s       :     0.702168  s :     0.702168
      pz      :     0.092176  p :     0.214317
      px      :     0.054620
      py      :     0.067521

  4 C s       :     2.674803  s :     2.674803
      pz      :     0.956230  p :     2.620968
      px      :     0.758757
      py      :     0.905980
      dz2     :     0.092374  d :     0.834105
      dxz     :     0.122706
      dyz     :     0.195576
      dx2y2   :     0.200064
      dxy     :     0.223385
      f0      :     0.007220  f :     0.069420
      f+1     :     0.006975
      f-1     :     0.006416
      f+2     :     0.006230
      f-2     :     0.009100
      f+3     :     0.017003
      f-3     :     0.016476

  5 H s       :     0.675056  s :     0.675056
      pz      :     0.087316  p :     0.194129
      px      :     0.046644
      py      :     0.060169

  6 H s       :     0.675977  s :     0.675977
      pz      :     0.083911  p :     0.192320
      px      :     0.044687
      py      :     0.063721

  7 O s       :     3.160929  s :     3.160929
      pz      :     1.497484  p :     4.270733
      px      :     1.270704
      py      :     1.502546
      dz2     :     0.052961  d :     0.528308
      dxz     :     0.106357
      dyz     :     0.053047
      dx2y2   :     0.154927
      dxy     :     0.161015
      f0      :     0.000614  f :     0.007203
      f+1     :     0.000899
      f-1     :     0.000346
      f+2     :     0.000130
      f-2     :     0.001196
      f+3     :     0.002359
      f-3     :     0.001659

  8 C s       :     2.614297  s :     2.614297
      pz      :     0.636544  p :     2.339648
      px      :     0.798383
      py      :     0.904722
      dz2     :     0.110590  d :     1.297293
      dxz     :     0.127623
      dyz     :     0.240275
      dx2y2   :     0.337033
      dxy     :     0.481772
      f0      :     0.010877  f :     0.154885
      f+1     :     0.008430
      f-1     :     0.012846
      f+2     :     0.020742
      f-2     :     0.014213
      f+3     :     0.060530
      f-3     :     0.027246

  9 O s       :     3.309284  s :     3.309284
      pz      :     1.245066  p :     4.283803
      px      :     1.559312
      py      :     1.479425
      dz2     :     0.029887  d :     0.230170
      dxz     :     0.005968
      dyz     :     0.041491
      dx2y2   :     0.076748
      dxy     :     0.076077
      f0      :     0.000509  f :     0.006701
      f+1     :     0.000117
      f-1     :     0.001033
      f+2     :     0.000980
      f-2     :     0.000079
      f+3     :     0.002001
      f-3     :     0.001982

 10 C s       :     2.576800  s :     2.576800
      pz      :     0.686306  p :     2.190382
      px      :     0.775121
      py      :     0.728955
      dz2     :     0.337770  d :     1.522709
      dxz     :     0.242169
      dyz     :     0.345818
      dx2y2   :     0.260961
      dxy     :     0.335991
      f0      :     0.044949  f :     0.266698
      f+1     :     0.033837
      f-1     :     0.047181
      f+2     :     0.036881
      f-2     :     0.043028
      f+3     :     0.033772
      f-3     :     0.027049

 11 F s       :     3.534003  s :     3.534003
      pz      :     1.651001  p :     5.090292
      px      :     1.785147
      py      :     1.654144
      dz2     :     0.057029  d :     0.205590
      dxz     :     0.026747
      dyz     :     0.051852
      dx2y2   :     0.027068
      dxy     :     0.042894
      f0      :     0.000243  f :     0.001738
      f+1     :     0.000057
      f-1     :     0.000496
      f+2     :     0.000415
      f-2     :     0.000291
      f+3     :     0.000136
      f-3     :     0.000100

 12 F s       :     3.525197  s :     3.525197
      pz      :     1.765846  p :     5.080440
      px      :     1.607109
      py      :     1.707485
      dz2     :     0.026023  d :     0.213814
      dxz     :     0.032832
      dyz     :     0.034178
      dx2y2   :     0.059362
      dxy     :     0.061418
      f0      :     0.000163  f :     0.001826
      f+1     :     0.000238
      f-1     :     0.000119
      f+2     :     0.000056
      f-2     :     0.000285
      f+3     :     0.000458
      f-3     :     0.000506

 13 F s       :     3.535356  s :     3.535356
      pz      :     1.582298  p :     5.091559
      px      :     1.782870
      py      :     1.726391
      dz2     :     0.061836  d :     0.203535
      dxz     :     0.042956
      dyz     :     0.060453
      dx2y2   :     0.012044
      dxy     :     0.026245
      f0      :     0.000454  f :     0.001726
      f+1     :     0.000216
      f-1     :     0.000582
      f+2     :     0.000188
      f-2     :     0.000236
      f+3     :     0.000035
      f-3     :     0.000016


------------------------------------------
LOEWDIN REDUCED ORBITAL POPULATIONS PER MO
-------------------------------------------
THRESHOLD FOR PRINTING IS 0.1%%
                      0         1         2         3         4         5   
                 -24.78881 -24.78862 -24.78783 -19.27465 -19.21760 -10.52770
                   2.00000   2.00000   2.00000   2.00000   2.00000   2.00000
                  --------  --------  --------  --------  --------  --------
 7 O  s               0.0       0.0       0.0      99.6       0.0       0.0
 8 C  dx2y2           0.0       0.0       0.0       0.0       0.1       0.0
 8 C  dxy             0.0       0.0       0.0       0.1       0.0       0.1
 9 O  s               0.0       0.0       0.0       0.0      99.5       0.0
10 C  s               0.0       0.0       0.0       0.0       0.0      98.4
11 F  s               0.0      99.8       0.0       0.0       0.0       0.0
11 F  dyz             0.0       0.0       0.0       0.0       0.0       0.2
12 F  s               0.0       0.0      99.8       0.0       0.0       0.0
12 F  dxy             0.0       0.0       0.0       0.0       0.0       0.2
13 F  s              99.8       0.0       0.0       0.0       0.0       0.0
13 F  pz              0.0       0.0       0.0       0.0       0.0       0.1
13 F  dz2             0.0       0.0       0.0       0.0       0.0       0.1
13 F  dyz             0.0       0.0       0.0       0.0       0.0       0.1

                      6         7         8         9        10        11   
                 -10.42277 -10.33782 -10.26954  -1.46447  -1.37146  -1.37025
                   2.00000   2.00000   2.00000   2.00000   2.00000   2.00000
                  --------  --------  --------  --------  --------  --------
 0 C  s               0.0       0.0      99.2       0.0       0.0       0.0
 0 C  dxy             0.0       0.2       0.0       0.0       0.0       0.0
 4 C  s               0.0      99.0       0.0       0.0       0.0       0.0
 4 C  dxy             0.0       0.0       0.2       0.0       0.0       0.0
 7 O  s               0.0       0.0       0.0       0.2       0.1       0.0
 7 O  px              0.1       0.1       0.0       0.8       0.0       0.0
 7 O  dxz             0.0       0.0       0.0       0.0       0.0       0.1
 7 O  dx2y2           0.0       0.0       0.0       0.2       0.1       0.0
 7 O  dxy             0.2       0.1       0.0       0.0       0.1       0.0
 8 C  s              98.5       0.0       0.0       1.2       0.0       0.0
 8 C  pz              0.0       0.0       0.0       0.0       0.0       0.3
 8 C  px              0.0       0.0       0.0       1.0       0.1       0.0
 8 C  py              0.0       0.0       0.0       0.6       0.3       0.0
 8 C  dz2             0.0       0.0       0.0       0.6       0.0       0.0
 8 C  dxz             0.0       0.0       0.0       0.0       0.0       0.7
 8 C  dyz             0.0       0.0       0.0       0.0       0.0       0.7
 8 C  dx2y2           0.0       0.0       0.0       0.2       1.1       0.0
 8 C  dxy             0.0       0.0       0.0       1.4       0.2       0.0
 9 O  s               0.0       0.0       0.0       0.1       0.0       0.0
 9 O  px              0.0       0.0       0.0       0.3       0.1       0.0
 9 O  py              0.2       0.0       0.0       0.5       0.0       0.0
 9 O  dz2             0.1       0.0       0.0       0.1       0.0       0.0
 9 O  dx2y2           0.3       0.0       0.0       0.0       0.0       0.0
 9 O  dxy             0.0       0.0       0.0       0.1       0.1       0.0
10 C  s               0.0       0.0       0.0      14.3       0.0       0.0
10 C  pz              0.0       0.0       0.0       0.0       0.3      14.4
10 C  px              0.0       0.0       0.0       1.9       5.0       0.1
10 C  py              0.0       0.0       0.0       0.8       9.7       0.2
10 C  dz2             0.0       0.0       0.0       0.3       3.9       0.7
10 C  dxz             0.0       0.0       0.0       0.0       0.6       0.0
10 C  dyz             0.0       0.0       0.0       0.0       0.4       8.4
10 C  dx2y2           0.0       0.0       0.0       0.1       1.8       0.2
10 C  dxy             0.1       0.0       0.0       1.0       2.7       0.1
10 C  f0              0.0       0.0       0.0       0.2       0.0       0.0
10 C  f+1             0.0       0.0       0.0       0.0       0.2       0.0
10 C  f-1             0.0       0.0       0.0       1.2       0.2       0.0
10 C  f+2             0.0       0.0       0.0       0.0       0.1       0.6
10 C  f-2             0.0       0.0       0.0       0.1       0.0       0.0
10 C  f-3             0.0       0.0       0.0       0.5       0.3       0.0
11 F  s               0.0       0.0       0.0      19.3      13.2      32.5
11 F  pz              0.0       0.0       0.0       1.7       0.3       0.4
11 F  px              0.0       0.0       0.0       0.2       0.2       0.0
11 F  py              0.0       0.0       0.0       1.2       0.2       0.4
11 F  dz2             0.0       0.0       0.0       0.2       0.5       0.5
11 F  dxz             0.0       0.0       0.0       0.1       0.1       0.0
11 F  dyz             0.0       0.0       0.0       0.8       0.0       0.0
11 F  dx2y2           0.0       0.0       0.0       0.1       0.1       0.0
11 F  dxy             0.0       0.0       0.0       0.2       0.3       0.0
12 F  s               0.0       0.0       0.0      20.4      43.9       0.1
12 F  pz              0.0       0.0       0.0       0.1       0.0       0.7
12 F  px              0.0       0.0       0.0       1.6       0.6       0.0
12 F  py              0.0       0.0       0.0       1.4       0.3       0.0
12 F  dz2             0.0       0.0       0.0       0.2       0.0       0.1
12 F  dxz             0.0       0.0       0.0       0.1       0.0       0.7
12 F  dyz             0.0       0.0       0.0       0.1       0.0       0.6
12 F  dxy             0.0       0.0       0.0       1.1       0.2       0.0
13 F  s               0.0       0.0       0.0      19.1      10.4      35.6
13 F  pz              0.0       0.0       0.0       2.6       0.2       0.5
13 F  px              0.0       0.0       0.0       0.0       0.3       0.0
13 F  py              0.0       0.0       0.0       0.4       0.3       0.3
13 F  dz2             0.0       0.0       0.0       0.9       0.2       0.4
13 F  dxz             0.0       0.0       0.0       0.0       0.4       0.0
13 F  dyz             0.0       0.0       0.0       0.4       0.4       0.1
13 F  dxy             0.0       0.0       0.0       0.0       0.1       0.0

                     12        13        14        15        16        17   
                  -1.27636  -1.18671  -0.94300  -0.87853  -0.80159  -0.75026
                   2.00000   2.00000   2.00000   2.00000   2.00000   2.00000
                  --------  --------  --------  --------  --------  --------
 0 C  s               0.3       0.2      12.9       8.1      10.0       4.0
 0 C  px              0.4       0.3       1.2       0.0       1.5       1.4
 0 C  py              0.0       0.0       1.0       0.1       0.5       2.3
 0 C  dz2             0.2       0.1       0.3       0.0       0.2       0.3
 0 C  dx2y2           0.4       0.3       0.0       0.1       0.1       0.1
 0 C  dxy             0.3       0.1       0.7       0.0       0.5       0.8
 1 H  s               0.0       0.0       2.3       2.2       4.0       1.7
 1 H  px              0.1       0.0       1.8       0.7       0.5       0.1
 1 H  py              0.0       0.0       0.0       0.1       0.5       0.6
 2 H  s               0.0       0.0       2.3       1.8       3.3       2.2
 2 H  pz              0.0       0.0       0.8       0.5       0.7       0.4
 2 H  px              0.1       0.1       0.1       0.0       0.2       0.1
 2 H  py              0.0       0.0       1.0       0.3       0.2       0.0
 3 H  s               0.0       0.0       2.3       1.8       3.3       2.2
 3 H  pz              0.0       0.0       0.9       0.5       0.7       0.4
 3 H  px              0.1       0.1       0.0       0.0       0.2       0.1
 3 H  py              0.0       0.0       0.8       0.3       0.1       0.0
 4 C  s               3.2       1.5      16.0       1.5       2.3       5.4
 4 C  px              3.6       1.2       1.2       3.5       4.3       0.1
 4 C  py              0.5       0.7       0.9       0.2       0.8       3.2
 4 C  dz2             1.0       0.3       0.1       0.1       0.5       0.8
 4 C  dx2y2           1.5       0.2       0.2       0.1       0.2       0.1
 4 C  dxy             0.8       1.2       1.1       0.9       1.5       0.5
 4 C  f-1             0.0       0.0       0.1       0.0       0.0       0.0
 4 C  f-3             0.2       0.1       0.1       0.0       0.0       0.0
 5 H  s               0.4       0.1       2.8       0.3       0.7       3.1
 5 H  pz              0.3       0.1       1.0       0.1       0.1       0.5
 5 H  px              0.7       0.0       0.1       0.2       0.2       0.0
 5 H  py              0.2       0.2       0.8       0.2       0.1       0.1
 6 H  s               0.4       0.1       2.9       0.3       0.8       3.1
 6 H  pz              0.3       0.0       0.8       0.1       0.1       0.5
 6 H  px              0.5       0.0       0.1       0.2       0.2       0.0
 6 H  py              0.3       0.2       0.9       0.2       0.1       0.1
 7 O  s              29.4      15.9       0.4       1.4       0.1       1.2
 7 O  px              0.5       0.6      16.7       0.5      11.3       1.4
 7 O  py              2.8       0.5       0.2       0.2       0.4       0.6
 7 O  dz2             0.7       0.1       0.2       0.4       0.0       0.2
 7 O  dx2y2           0.0       0.4       0.1       2.3       0.4       0.4
 7 O  dxy             0.5       1.4       1.0       0.0       0.9       0.9
 8 C  s              14.5       2.7       2.9       1.6       1.8       0.9
 8 C  pz              0.0       0.1       0.0       0.0       0.0       0.0
 8 C  px              3.9       3.4       0.4       6.1       0.2       5.7
 8 C  py              0.3      19.5       5.3       2.7       1.8       0.5
 8 C  dz2             2.2       0.1       0.2       0.0       0.2       0.0
 8 C  dx2y2           0.1       5.2       0.5       0.2       0.4       1.2
 8 C  dxy             2.1       0.8       0.0       1.2       0.2       0.6
 8 C  f+1             0.1       0.1       0.0       0.1       0.0       0.0
 8 C  f-1             0.0       0.4       0.1       0.0       0.0       0.0
 8 C  f-3             1.0       0.1       0.0       0.0       0.0       0.0
 9 O  s              12.1      33.5       1.3       1.0       0.3       1.1
 9 O  px              0.4       0.2       0.3       0.7       0.1       1.0
 9 O  py              3.8       3.5       0.5       0.5       0.4       0.9
 9 O  dz2             0.4       0.1       0.1       0.1       0.0       0.2
 9 O  dx2y2           0.7       0.2       0.6       0.3       0.2       0.0
 9 O  dxy             0.6       0.3       0.1       0.6       0.0       0.3
10 C  s               0.4       0.1       1.5       9.4       2.8       0.2
10 C  px              1.6       0.0       2.2       3.0       3.6       6.0
10 C  py              0.6       0.4       0.6       1.5       0.8       8.1
10 C  dz2             0.8       0.0       0.2       0.2       0.0       0.5
10 C  dx2y2           0.5       1.2       0.4       0.0       0.1       0.2
10 C  dxy             1.1       0.8       0.2       0.6       0.3       0.1
11 F  s               0.2       0.0       0.7       3.5       1.5       0.9
11 F  pz              0.0       0.0       0.4       3.3       4.1       7.3
11 F  px              0.3       0.0       0.2       0.3       1.7       3.6
11 F  py              0.2       0.0       0.7       5.0       2.3       0.4
11 F  dz2             0.0       0.0       0.0       0.0       0.1       0.2
11 F  dxz             0.1       0.0       0.1       0.1       0.2       0.2
11 F  dyz             0.0       0.0       0.2       0.7       0.1       0.1
11 F  dx2y2           0.0       0.0       0.0       0.3       0.0       0.2
11 F  dxy             0.1       0.0       0.1       0.1       0.2       0.2
12 F  s               0.1       0.2       0.3       3.7       2.6       0.1
12 F  pz              0.0       0.0       0.0       0.2       0.4       0.0
12 F  px              0.4       0.2       0.7       7.7       4.7       1.1
12 F  py              0.1       0.1       0.0       0.9       6.4       6.3
12 F  dz2             0.0       0.0       0.0       0.3       0.1       0.0
12 F  dx2y2           0.1       0.1       0.2       0.7       0.1       0.7
12 F  dxy             0.0       0.1       0.0       0.2       0.3       0.1
13 F  s               0.2       0.0       0.7       3.6       1.6       0.7
13 F  pz              0.1       0.0       0.5       5.2       6.9       8.4
13 F  px              0.3       0.0       0.3       0.8       0.7       1.9
13 F  py              0.2       0.0       0.4       2.7       0.7       0.3
13 F  dz2             0.0       0.0       0.0       0.1       0.3       0.3
13 F  dxz             0.1       0.0       0.2       0.3       0.1       0.2
13 F  dyz             0.0       0.0       0.2       0.6       0.1       0.1
13 F  dxy             0.0       0.0       0.1       0.1       0.0       0.1

                     18        19        20        21        22        23   
                  -0.73091  -0.72827  -0.70608  -0.64337  -0.61797  -0.60146
                   2.00000   2.00000   2.00000   2.00000   2.00000   2.00000
                  --------  --------  --------  --------  --------  --------
 0 C  s               0.0       0.4       0.0       0.0       0.1       0.0
 0 C  pz              0.0       0.0       0.0       5.9       0.0       0.2
 0 C  px              0.0       0.1       0.9       0.0       0.0       0.0
 0 C  py              0.0       0.9       1.6       0.0       1.5       0.4
 0 C  dxz             0.0       0.0       0.0       1.0       0.0       0.0
 0 C  dyz             0.0       0.0       0.0       0.2       0.0       0.0
 0 C  dx2y2           0.0       0.2       0.9       0.0       0.1       0.0
 0 C  dxy             0.0       0.2       0.3       0.0       0.0       0.0
 1 H  s               0.0       0.1       0.6       0.0       0.1       0.0
 1 H  pz              0.0       0.0       0.0       0.5       0.0       0.0
 1 H  py              0.0       0.1       0.1       0.0       0.1       0.0
 2 H  s               0.0       0.4       0.1       1.2       0.3       0.3
 2 H  pz              0.0       0.1       0.0       0.2       0.0       0.0
 2 H  px              0.0       0.0       0.1       0.0       0.0       0.0
 2 H  py              0.0       0.0       0.1       0.1       0.0       0.0
 3 H  s               0.0       0.4       0.1       1.2       0.2       0.0
 3 H  pz              0.0       0.1       0.0       0.2       0.0       0.0
 3 H  px              0.0       0.0       0.1       0.0       0.0       0.0
 3 H  py              0.0       0.0       0.1       0.2       0.1       0.0
 4 C  s               0.0       1.5       1.4       0.0       0.3       0.0
 4 C  pz              0.1       0.0       0.0      20.6       0.0       0.5
 4 C  px              0.0       0.3       2.1       0.1       2.3       0.4
 4 C  py              0.0       2.7      11.0       0.0       1.6       0.1
 4 C  dz2             0.0       0.2       0.4       0.0       0.1       0.0
 4 C  dxz             0.0       0.0       0.0       0.4       0.0       0.0
 4 C  dx2y2           0.0       0.0       0.4       0.0       0.1       0.0
 4 C  dxy             0.0       0.1       1.2       0.0       0.0       0.1
 4 C  f+3             0.0       0.0       0.1       0.0       0.0       0.0
 5 H  s               0.0       1.4       3.2       4.7       0.6       0.0
 5 H  pz              0.0       0.2       0.5       0.5       0.1       0.0
 5 H  py              0.0       0.0       0.1       0.4       0.1       0.0
 6 H  s               0.0       1.4       3.0       4.8       0.8       0.4
 6 H  pz              0.0       0.2       0.5       0.5       0.1       0.0
 6 H  py              0.0       0.0       0.1       0.4       0.0       0.0
 7 O  s               0.0       1.0       3.4       0.0       0.6       0.1
 7 O  pz              0.6       0.0       0.2      26.6       0.0       0.0
 7 O  px              0.0       0.8      15.7       0.1       4.3       0.5
 7 O  py              0.0       0.9      12.5       0.1       5.0       0.7
 7 O  dz2             0.0       0.1       0.1       0.0       0.0       0.0
 7 O  dxz             0.1       0.0       0.0       0.2       0.0       0.1
 7 O  dyz             0.0       0.0       0.0       0.8       0.0       0.0
 7 O  dx2y2           0.0       0.0       0.3       0.0       0.1       0.0
 7 O  dxy             0.0       0.6       0.6       0.0       0.5       0.1
 8 C  s               0.0       0.1       1.6       0.0       3.1       0.0
 8 C  pz              1.6       0.0       0.0      10.5       0.0       0.0
 8 C  px              0.0       0.3       7.4       0.0       0.2       0.1
 8 C  py              0.0       0.2       0.2       0.0       6.0       0.1
 8 C  dz2             0.0       0.1       0.3       0.0       0.9       0.2
 8 C  dxz             0.2       0.0       0.0       1.8       0.0       0.0
 8 C  dyz             0.2       0.0       0.0       0.0       0.0       0.0
 8 C  dx2y2           0.0       0.4       0.6       0.0       3.8       0.1
 8 C  dxy             0.0       0.5       1.4       0.0       0.3       0.4
 8 C  f0              0.1       0.0       0.0       0.2       0.0       0.0
 8 C  f-2             0.0       0.0       0.0       0.2       0.0       0.0
 8 C  f+3             0.0       0.1       0.1       0.0       0.2       0.0
 9 O  s               0.0       0.0       1.3       0.0      13.1       0.0
 9 O  pz              0.5       0.0       0.0       6.2       0.2       0.1
 9 O  px              0.0       0.3       3.8       0.0       0.0       0.6
 9 O  py              0.0       0.0       1.5       0.0      45.4       0.0
 9 O  dz2             0.0       0.0       0.0       0.0       0.2       0.0
 9 O  dxz             0.0       0.0       0.0       0.1       0.0       0.0
 9 O  dyz             0.2       0.0       0.0       0.8       0.0       0.0
 9 O  dx2y2           0.0       0.0       0.0       0.0       0.5       0.0
 9 O  dxy             0.0       0.1       0.6       0.0       0.0       0.0
10 C  s               0.0       0.0       0.1       0.0       0.0       0.0
10 C  pz             16.8       0.2       0.0       0.3       0.0       0.2
10 C  px              0.1       5.3       3.1       0.0       0.1       0.3
10 C  py              0.1       9.0       0.1       0.0       0.1       0.5
10 C  dz2             0.4       1.3       0.1       0.0       0.2       6.1
10 C  dxz             0.1       0.2       0.0       2.2       0.0       0.6
10 C  dyz             2.7       0.2       0.1       0.1       0.0       0.4
10 C  dx2y2           0.0       0.2       0.5       0.0       0.4       2.8
10 C  dxy             0.1       0.6       0.7       0.0       0.5       0.2
10 C  f+3             0.0       0.0       0.0       0.0       0.0       0.1
10 C  f-3             0.0       0.0       0.0       0.0       0.0       0.1
11 F  s               2.8       1.1       0.1       0.0       0.0       0.0
11 F  pz              4.2      13.0       0.7       0.1       0.6      11.6
11 F  px              0.2       1.7       2.5       2.0       1.4       1.8
11 F  py             22.4       0.6       0.3       0.2       0.5      18.9
11 F  dz2             0.2       0.2       0.0       0.0       0.0       0.0
11 F  dyz             0.2       0.1       0.0       0.0       0.0       0.0
11 F  dx2y2           0.1       0.0       0.0       0.0       0.0       0.0
12 F  s               0.0       3.8       0.4       0.0       0.0       0.2
12 F  pz              9.8       1.2       0.3       1.0       0.3       3.9
12 F  px              0.6      24.5       0.6       0.0       0.6      10.6
12 F  py              0.4       5.9       5.5       0.1       0.6       2.3
12 F  dz2             0.1       0.1       0.0       0.0       0.0       0.1
12 F  dxz             0.4       0.0       0.0       0.0       0.0       0.0
12 F  dyz             0.2       0.0       0.0       0.0       0.0       0.0
12 F  dx2y2           0.0       0.1       0.1       0.0       0.0       0.0
12 F  dxy             0.0       0.2       0.0       0.0       0.0       0.1
13 F  s               3.4       0.6       0.0       0.0       0.0       0.2
13 F  pz             15.6       8.0       0.1       0.8       0.6       0.6
13 F  px              0.1       4.0       2.9       1.5       0.1       2.2
13 F  py             14.5       0.7       0.0       0.1       0.7      29.7
13 F  dz2             0.2       0.1       0.0       0.0       0.0       0.0
13 F  dxz             0.0       0.2       0.1       0.0       0.0       0.0
13 F  dyz             0.2       0.1       0.0       0.0       0.0       0.0

                     24        25        26        27        28        29   
                  -0.60015  -0.58293  -0.57316  -0.56189  -0.54927  -0.53872
                   2.00000   2.00000   2.00000   2.00000   2.00000   2.00000
                  --------  --------  --------  --------  --------  --------
 0 C  s               0.0       0.2       0.0       0.0       0.0       0.0
 0 C  pz              1.3       0.0       8.6       0.0       8.8       0.1
 0 C  px              0.0       2.9       0.0       0.5       0.0       0.0
 0 C  py              0.0       5.1       0.0       0.0       0.0       0.0
 0 C  dz2             0.0       0.2       0.0       0.0       0.0       0.0
 0 C  dxz             0.1       0.0       0.1       0.0       0.0       0.0
 0 C  dyz             0.0       0.0       0.0       0.0       0.2       0.0
 0 C  dxy             0.0       0.2       0.0       0.0       0.0       0.0
 1 H  s               0.0       0.4       0.0       0.2       0.0       0.0
 1 H  pz              0.1       0.0       0.6       0.0       0.5       0.0
 1 H  py              0.0       0.4       0.0       0.0       0.0       0.0
 2 H  s               0.2       1.2       2.2       0.0       2.8       0.0
 2 H  pz              0.0       0.1       0.2       0.0       0.2       0.0
 2 H  px              0.0       0.2       0.0       0.0       0.0       0.0
 2 H  py              0.0       0.1       0.1       0.0       0.1       0.0
 3 H  s               0.4       1.1       2.5       0.0       2.6       0.0
 3 H  pz              0.0       0.1       0.2       0.0       0.2       0.0
 3 H  px              0.0       0.2       0.0       0.0       0.0       0.0
 3 H  py              0.0       0.1       0.1       0.0       0.1       0.0
 4 C  s               0.0       0.4       0.0       0.0       0.0       0.0
 4 C  pz              2.1       0.0       6.3       0.0       2.0       0.0
 4 C  px              0.1       6.4       0.1       0.1       0.0       0.0
 4 C  py              0.0       0.4       0.0       0.2       0.0       0.0
 4 C  dxz             0.0       0.0       1.3       0.0       1.7       0.0
 4 C  dx2y2           0.0       0.3       0.0       0.1       0.0       0.0
 4 C  dxy             0.0       1.1       0.0       0.0       0.0       0.0
 5 H  s               0.7       0.1       1.8       0.0       0.6       0.0
 5 H  pz              0.0       0.0       0.1       0.0       0.0       0.0
 5 H  px              0.0       0.2       0.1       0.0       0.1       0.0
 5 H  py              0.0       0.0       0.1       0.0       0.0       0.0
 6 H  s               0.4       0.1       1.8       0.0       0.6       0.0
 6 H  pz              0.1       0.0       0.2       0.0       0.1       0.0
 6 H  px              0.0       0.2       0.0       0.0       0.1       0.0
 6 H  py              0.0       0.1       0.1       0.0       0.0       0.0
 7 O  s               0.0       0.7       0.0       0.1       0.0       0.0
 7 O  pz              0.1       0.0       1.4       0.0       5.2       0.0
 7 O  px              0.1       1.1       0.0       0.1       0.0       0.0
 7 O  py              0.1      15.1       0.0       0.5       0.0       0.0
 7 O  dxz             0.7       0.0       2.5       0.0       0.7       0.0
 7 O  dyz             0.1       0.0       0.0       0.0       0.2       0.1
 7 O  dx2y2           0.0       0.4       0.0       0.0       0.0       0.0
 8 C  s               0.0       0.7       0.0       0.0       0.0       0.0
 8 C  pz              0.1       0.0       7.1       0.0       7.7       0.1
 8 C  px              0.0       3.9       0.1       0.2       0.0       0.0
 8 C  py              0.1       0.4       0.0       0.8       0.0       0.0
 8 C  dxz             0.0       0.0       0.5       0.0       0.4       0.0
 8 C  dyz             0.1       0.0       0.2       0.0       1.2       0.0
 8 C  dx2y2           0.0       0.7       0.0       0.5       0.0       0.0
 8 C  dxy             0.0       1.7       0.0       0.3       0.0       0.0
 8 C  f0              0.0       0.0       0.1       0.0       0.1       0.0
 9 O  s               0.1       0.2       0.0       0.2       0.0       0.0
 9 O  pz              0.0       0.0       8.3       0.0      11.0       0.2
 9 O  px              0.0       5.2       0.1       1.2       0.1       0.0
 9 O  py              0.4       2.2       0.0       1.6       0.0       0.0
 9 O  dyz             0.0       0.0       0.4       0.0       0.4       0.0
 9 O  dx2y2           0.0       0.2       0.0       0.1       0.0       0.0
[...]
13 F  f+2             0.1       0.0       0.0       1.6       0.0       0.4
13 F  f-2             0.0       0.1       0.1       0.1       0.3       0.3
13 F  f-3             0.0       0.0       0.0       0.4       0.0       0.1

                    378       379       380       381       382       383   
                   8.98793   9.24542   9.27450   9.28998   9.42973   9.44564
                   0.00000   0.00000   0.00000   0.00000   0.00000   0.00000
                  --------  --------  --------  --------  --------  --------
 8 C  s               0.1       0.0       0.0       0.1       0.0       0.0
 8 C  pz              0.0       0.1       0.0       0.0       0.0       0.0
 8 C  px              0.1       0.0       0.1       0.0       0.0       0.0
 8 C  py              0.0       0.0       0.1       0.2       0.0       0.0
 8 C  dxy             0.0       0.0       0.0       0.1       0.0       0.0
10 C  s               0.2       0.0       0.7       2.8       0.0       0.0
10 C  pz              0.0       0.0       0.0       0.0       3.9       0.0
10 C  px              0.5       0.0       0.1       0.7       0.0       1.4
10 C  py              0.3       0.0       0.1       0.4       0.0       2.7
10 C  dz2             0.2       0.1       1.0       0.2       0.1       0.4
10 C  dxz             0.0       2.7       0.0       0.0       0.1       0.1
10 C  dyz             0.0       0.2       0.2       0.0       1.0       0.1
10 C  dx2y2           0.1       0.0       1.5       0.5       0.0       0.3
10 C  dxy             0.4       0.1       0.0       0.2       0.0       0.3
10 C  f+1             0.1       0.0       0.0       0.0       0.0       0.0
10 C  f-1             0.1       0.0       0.0       0.2       0.0       0.0
10 C  f+2             0.0       0.1       0.0       0.0       0.0       0.0
11 F  s               0.0       0.0       0.2       0.7       1.7       0.7
11 F  pz              0.0       0.0       0.0       0.6       0.7       0.5
11 F  px              0.1       0.4       0.0       0.0       0.0       0.0
11 F  py              0.1       0.0       0.5       0.0       0.9       0.3
11 F  dz2             4.2       0.8      15.8      15.7       0.9       2.8
11 F  dxz             8.2       6.1       0.0       0.4       0.4       0.4
11 F  dyz             1.3       0.8       8.0      12.0      29.0      10.5
11 F  dx2y2           3.4       0.2       6.4       1.9       5.6       3.4
11 F  dxy            12.4      17.7       1.2       0.5       0.7       0.1
11 F  f0              0.3       0.0       1.5       0.2       0.1       0.0
11 F  f-1             0.0       0.2       0.0       0.7       1.2       0.4
11 F  f+2             0.3       0.2       0.4       0.2       1.1       0.6
11 F  f-2             0.5       0.7       0.0       0.0       0.1       0.0
11 F  f+3             0.3       0.6       0.1       0.0       0.0       0.0
11 F  f-3             0.1       0.1       0.0       0.1       0.1       0.1
12 F  s               0.0       0.0       0.1       0.7       0.0       2.6
12 F  pz              0.0       0.6       0.0       0.0       0.0       0.1
12 F  px              0.1       0.0       0.1       0.5       0.0       1.7
12 F  py              0.1       0.0       0.4       0.1       0.0       0.8
12 F  dz2             0.9       3.7       0.1       4.2       0.4      12.2
12 F  dxz             0.1      13.1       0.0       1.8       0.0       3.1
12 F  dyz             0.6      18.5       0.5       0.4       1.3       1.6
12 F  dx2y2          29.0       0.0      11.3       8.7       0.0       5.5
12 F  dxy             3.5       1.0      13.7      10.7       0.4      30.9
12 F  f0              0.0       0.5       0.0       0.1       0.0       0.2
12 F  f+1             0.3       0.2       0.1       0.3       0.0       0.8
12 F  f-1             0.0       0.3       0.0       0.1       0.0       0.3
12 F  f-2             0.0       1.3       0.0       0.1       0.0       0.4
12 F  f+3             1.5       0.0       1.1       0.1       0.0       0.2
12 F  f-3             0.2       0.0       0.0       0.9       0.0       2.1
13 F  s               0.0       0.1       0.2       0.6       2.0       0.4
13 F  pz              0.0       0.0       0.0       0.6       1.5       0.4
13 F  px              0.1       0.4       0.0       0.0       0.0       0.0
13 F  py              0.1       0.0       0.6       0.0       0.5       0.0
13 F  dz2             4.9       0.2       2.7      26.8      17.3       6.4
13 F  dxz            10.4      15.0       0.3       0.6       0.3       0.4
13 F  dyz             3.9       0.1      25.9       2.0      24.4       2.2
13 F  dx2y2           0.5       0.1       1.9       0.4       0.9       0.7
13 F  dxy             8.0      11.2       0.0       0.3       0.1       0.6
13 F  f0              0.2       0.1       0.7       0.8       0.5       0.2
13 F  f+1             0.2       0.4       0.0       0.1       0.1       0.0
13 F  f-1             0.2       0.0       1.2       0.2       2.1       0.3
13 F  f+2             0.1       0.0       0.2       0.1       0.3       0.2
13 F  f-2             0.7       1.2       0.0       0.0       0.0       0.0
13 F  f+3             0.1       0.2       0.0       0.0       0.0       0.0

                    384       385       386       387       388       389   
                  22.58374  22.75073  23.03473  23.70769  44.29322  44.51576
                   0.00000   0.00000   0.00000   0.00000   0.00000   0.00000
                  --------  --------  --------  --------  --------  --------
 0 C  s              97.9       0.6       0.0       0.0       0.0       0.0
 1 H  s               0.2       0.0       0.0       0.0       0.0       0.0
 2 H  s               0.2       0.0       0.0       0.0       0.0       0.0
 3 H  s               0.2       0.0       0.0       0.0       0.0       0.0
 4 C  s               0.6      97.2       0.0       0.3       0.0       0.1
 5 H  s               0.0       0.2       0.0       0.0       0.0       0.0
 6 H  s               0.0       0.2       0.0       0.0       0.0       0.0
 7 O  s               0.0       0.2       0.0       0.5       0.9      98.7
 7 O  px              0.0       0.1       0.0       0.4       0.0       0.0
 7 O  py              0.0       0.0       0.0       0.2       0.0       0.0
 7 O  dxy             0.0       0.1       0.0       0.2       0.0       0.0
 8 C  s               0.0       0.3       0.0      95.2       0.1       0.0
 8 C  px              0.0       0.0       0.0       0.2       0.0       0.0
 8 C  py              0.0       0.0       0.0       0.2       0.1       0.0
 8 C  dz2             0.0       0.0       0.0       0.2       0.0       0.0
 8 C  dxy             0.0       0.0       0.1       0.1       0.0       0.0
 9 O  s               0.0       0.0       0.0       1.1      98.8       0.9
 9 O  py              0.0       0.0       0.0       0.7       0.0       0.0
10 C  s               0.0       0.1      96.6       0.1       0.0       0.0
11 F  s               0.0       0.0       0.3       0.0       0.0       0.0
11 F  pz              0.0       0.0       0.2       0.0       0.0       0.0
11 F  py              0.0       0.0       0.2       0.0       0.0       0.0
11 F  dyz             0.0       0.0       0.1       0.0       0.0       0.0
12 F  s               0.0       0.0       0.3       0.0       0.0       0.0
12 F  px              0.0       0.0       0.2       0.0       0.0       0.0
13 F  s               0.0       0.0       0.3       0.0       0.0       0.0
13 F  pz              0.0       0.0       0.2       0.0       0.0       0.0

                    390       391       392   
                  57.52101  57.56971  57.68580
                   0.00000   0.00000   0.00000
                  --------  --------  --------
10 C  s               0.0       0.3       0.0
10 C  pz              0.1       0.0       0.0
10 C  py              0.0       0.0       0.1
11 F  s              46.0      34.0      19.7
12 F  s               0.7      43.6      55.3
13 F  s              53.1      21.9      24.6


                      *****************************
                      * MAYER POPULATION ANALYSIS *
                      *****************************

  NA   - Mulliken gross atomic population
  ZA   - Total nuclear charge
  QA   - Mulliken gross atomic charge
  VA   - Mayer's total valence
  BVA  - Mayer's bonded valence
  FA   - Mayer's free valence

  ATOM       NA         ZA         QA         VA         BVA        FA
  0 C      7.1641     6.0000    -1.1641     3.5146     3.5146     0.0000
  1 H      0.6385     1.0000     0.3615     0.9573     0.9573     0.0000
  2 H      0.6963     1.0000     0.3037     1.0144     1.0144    -0.0000
  3 H      0.6937     1.0000     0.3063     1.0094     1.0094    -0.0000
  4 C      6.1887     6.0000    -0.1887     3.1596     3.1596     0.0000
  5 H      0.6927     1.0000     0.3073     0.9408     0.9408     0.0000
  6 H      0.6905     1.0000     0.3095     0.9378     0.9378     0.0000
  7 O      8.1924     8.0000    -0.1924     1.9020     1.9020    -0.0000
  8 C      5.6666     6.0000     0.3334     4.3132     4.3132    -0.0000
  9 O      8.5278     8.0000    -0.5278     1.8300     1.8300     0.0000
 10 C      5.0747     6.0000     0.9253     3.2795     3.2795    -0.0000
 11 F      9.2630     9.0000    -0.2630     0.9733     0.9733    -0.0000
 12 F      9.2478     9.0000    -0.2478     0.9666     0.9666     0.0000
 13 F      9.2634     9.0000    -0.2634     0.9647     0.9647     0.0000

  Mayer bond orders larger than 0.100000
B(  0-C ,  1-H ) :   0.9231 B(  0-C ,  2-H ) :   0.9799 B(  0-C ,  3-H ) :   0.9726 
B(  0-C ,  4-C ) :   0.6715 B(  4-C ,  5-H ) :   0.9369 B(  4-C ,  6-H ) :   0.9333 
B(  4-C ,  7-O ) :   0.7034 B(  7-O ,  8-C ) :   1.1075 B(  8-C ,  9-O ) :   1.7635 
B(  8-C , 10-C ) :   1.0082 B(  8-C , 11-F ) :   0.1248 B(  8-C , 12-F ) :   0.1601 
B(  8-C , 13-F ) :   0.1342 B( 10-C , 11-F ) :   0.7854 B( 10-C , 12-F ) :   0.7649 
B( 10-C , 13-F ) :   0.7689 

-------
TIMINGS
-------

Total SCF time: 0 days 0 hours 1 min 10 sec 

Total time                  ....      70.463 sec
Sum of individual times     ....      70.454 sec  (100.0%)

SCF preparation             ....       0.317 sec  (  0.4%)
Fock matrix formation       ....      68.552 sec  ( 97.3%)
  Startup                   ....       0.029 sec  (  0.0% of F)
  Split-RI-J                ....       2.550 sec  (  3.7% of F)
  Chain of spheres X        ....      58.544 sec  ( 85.4% of F)
  XC integration            ....       7.277 sec  ( 10.6% of F)
    XC Preparation          ....       0.000 sec  (  0.0% of XC)
    Basis function eval.    ....       1.563 sec  ( 21.5% of XC)
    Density eval.           ....       1.638 sec  ( 22.5% of XC)
    XC-Functional eval.     ....       0.246 sec  (  3.4% of XC)
    XC-Potential eval.      ....       3.092 sec  ( 42.5% of XC)
Diagonalization             ....       0.000 sec  (  0.0%)
Density matrix formation    ....       0.116 sec  (  0.2%)
Total Energy calculation    ....       0.047 sec  (  0.1%)
Population analysis         ....       0.490 sec  (  0.7%)
Orbital Transformation      ....       0.116 sec  (  0.2%)
Orbital Orthonormalization  ....       0.000 sec  (  0.0%)
DIIS solution               ....       0.571 sec  (  0.8%)
SOSCF solution              ....       0.245 sec  (  0.3%)
Finished LeanSCF after  70.5 sec

Maximum memory used throughout the entire LEANSCF-calculation: 42.1 MB

-------------------------   --------------------
FINAL SINGLE POINT ENERGY      -605.546967259385
-------------------------   --------------------



           ************************************************************
           *        Program running with 4 parallel MPI-processes     *
           *              working on a common directory               *
           ************************************************************

------------------------------------------------------------------------------
                              ORCA PROPERTY CALCULATIONS
------------------------------------------------------------------------------

GBWName                                 ... scf.wb97x.gbw
Number of atoms                         ...     14
Number of basis functions               ...    393
Max core memory                         ...   1024 MB

Electric properties:
Dipole moment                           ... YES
Quadrupole moment                       ...  NO
Static polarizability (Dipole/Dipole)   ...  NO
Static polarizability (Dipole/Quad.)    ...  NO
Static polarizability (Quad./Quad.)     ...  NO
Static polarizability (Velocity)        ...  NO

Atomic electric properties:
Dipole moment                           ...  NO
Quadrupole moment                       ...  NO
Static polarizability                   ...  NO

Choice of electric origin               ... Center of mass
Position of electric origin             ...    -1.473610     2.169321     0.083978

General magnetic properties:
Magnetizability                         ...  NO

EPR properties:
g-Tensor (aka g-matrix)                 ...  NO
Zero-Field splitting spin-orbit         ...  NO
Zero-field splitting spin-spin          ...  NO
Hyperfine couplings                     ...  NO (   0 nuclei)
Quadrupole couplings                    ...  NO (   0 nuclei)
Contact density                         ...  NO (   0 nuclei)

NMR properties:
Chemical shifts                         ...  NO (   0 nuclei)
Spin-rotation constants                 ...  NO (   0 nuclei)
Spin-spin couplings                     ...  NO (   0 nuclei,    0 pairs)

Choice of magnetic origin               ... GIAO
Position of magnetic origin             ...     0.000000     0.000000     0.000000

Properties with geometric perturbations:
SCF Hessian                             ...  NO
IR spectrum                             ...  NO
VCD spectrum                            ...  NO
X-ray spectroscopy properties:
SCF XES/XAS/RIXS spectra                ...  NO


-------------
DIPOLE MOMENT
-------------

Method             : SCF
Type of density    : Electron Density
Multiplicity       :   1
Irrep              :   0
Energy             :  -605.5469672593851556 Eh
Relativity type    : 
Basis              : AO
                                X                 Y                 Z
Electronic contribution:    -18.285381724      -2.087834167       0.783233286
Nuclear contribution   :     19.573122213       1.861246739      -0.859319080
                        -----------------------------------------
Total Dipole Moment    :      1.287740488      -0.226587428      -0.076085794
                        -----------------------------------------
Magnitude (a.u.)       :      1.309735269
Magnitude (Debye)      :      3.329082489



--------------------
Rotational spectrum 
--------------------
 
Rotational constants in cm-1:             0.103599             0.032596             0.028834 
Rotational constants in MHz :          3105.823699           977.195472           864.408930 

Dipole components along the rotational axes: 
x,y,z [a.u.] :     1.267942    -0.328217    -0.001969 
x,y,z [Debye]:     3.222852    -0.834262    -0.005005 

 

Dipole moment calculation done in   0.0 sec 

Maximum memory used throughout the entire PROP-calculation: 24.1 MB

--------------------------------
SUGGESTED CITATIONS FOR THIS RUN
--------------------------------

Below you find a list of papers that are relevant to this ORCA run
We neither can nor want to force you to cite these papers, but we appreciate if you do
You receive ORCA, which is the product of decades of hard work by many enthusiastic individuals, for free
The only thing we kindly ask in return is that you cite our papers,
We deeply appreciate it, if you show your appreciation for ORCA by not just citing the generic ORCA reference.

Please note that relegating all ORCA citations to the supporting information does *not* help us.
SI sections are not indexed - citations you put there will not count into any citation statistics
But we need these citations in order to attract the funding resources that allow us to do what we are doing

Therefore, if you are a happy ORCA user, please consider citing a few of the papers listed below in the main body of your paper

In addition to the list printed below, the program has created the file scf.wb97x.bibtex that contains the list in bibtex format
You can import this file easily into all common literature databanks and citation aid programs


List of essential papers. We consider these as the minimum necessary citations

  1. Neese,F.
     Software update: the ORCA program system, version 5.0
     WIRES Comput. Molec. Sci., 2022 12(1)e1606
     doi.org/10.1002/wcms.1606

List of papers to cite with high priority. The work reported in these papers was absolutely
necessary for this run to complete.
Our perspective: the developers of density functionals and basis sets usually get cited in chemistry papers
Good! But without the algorithms to do something with them, the functionals or basis sets would not do anything.
Hence, in our opinion, the algorithm design and method developments papers are equally worthy of getting cited

  1. Neese,F.
     An improvement of the resolution of the identity approximation for the formation of the Coulomb matrix
     J. Comp. Chem., 2003 24(14)1740-1747
     doi.org/10.1002/jcc.10318
  2. Neese,F.; Wennmohs,F.; Hansen,A.; Becker,U.
     Efficient, approximate and parallel Hartree-Fock and hybrid DFT calculations. A 'chain-of-spheres' algorithm for the Hartree-Fock exchange
     Chem. Phys., 2009 356(1-3)98-109
     doi.org/10.1016/j.chemphys.2008.10.036
  3. Helmich-Paris,B.; de Souza,B.; Neese,F.; Izsák,R.
     An improved chain of spheres for exchange algorithm
     J. Chem. Phys., 2021 155 104109
     doi.org/doi: 10.1063/5.0058766.
  4. Neese,F.
     The SHARK Integral Generation and Digestion System
     J. Comp. Chem., 2022  1-16
     doi.org/10.1002/jcc.26942

List of suggested additional citations. These are papers that are important in the 'surrounding' of 
of this run, or papers that preceded the highly important papers. If you like your results we are grateful for a citation.

  1. Izsak,R.; Neese,F.
     An overlap fitted chain of spheres exchange method
     J. Chem. Phys., 2011 135 144105
     doi.org/10.1063/1.3646921
  2. Izsak,R.; Hansen,A.; Neese,F.
     The resolution of identity and chain of spheres approximations for the LPNO-CCSD singles Fock term
     Molec. Phys., 2012 110 2413-2417
     doi.org/10.1080/00268976.2012.687466
  3. Neese,F.
     The ORCA program system
     WIRES Comput. Molec. Sci., 2012 2(1)73-78
     doi.org/10.1002/wcms.81
  4. Izsak,R.; Neese,F.; Klopper,W.
     Robust fitting techniques in the chain of spheres approximation to the Fock exchange: The role of the complementary space
     J. Chem. Phys., 2013 139 
     doi.org/10.1063/1.4819264
  5. Neese,F.
     Software update: the ORCA program system, version 4.0
     WIRES Comput. Molec. Sci., 2018 8(1)1-6
     doi.org/10.1002/wcms.1327
  6. Neese,F.; Wennmohs,F.; Becker,U.; Riplinger,C.
     The ORCA quantum chemistry program package
     J. Chem. Phys., 2020 152 Art. No. L224108
     doi.org/10.1063/5.0004608

List of optional additional citations

  1. Neese,F.
     Approximate second-order SCF convergence for spin unrestricted wavefunctions
     Chem. Phys. Lett., 2000 325(1-3)93-98
     doi.org/10.1016/s0009-2614(00)00662-x

Timings for individual modules:

Sum of individual times          ...       74.222 sec (=   1.237 min)
Startup calculation              ...        2.013 sec (=   0.034 min)   2.7 %
SCF iterations                   ...       71.679 sec (=   1.195 min)  96.6 %
Property calculations            ...        0.530 sec (=   0.009 min)   0.7 %
                             ****ORCA TERMINATED NORMALLY****
TOTAL RUN TIME: 0 days 0 hours 1 minutes 14 seconds 593 msec
