
                                 *****************
                                 * O   R   C   A *
                                 *****************

                                            #,                                       
                                            ###                                      
                                            ####                                     
                                            #####                                    
                                            ######                                   
                                           ########,                                 
                                     ,,################,,,,,                         
                               ,,#################################,,                 
                          ,,##########################################,,             
                       ,#########################################, ''#####,          
                    ,#############################################,,   '####,        
                  ,##################################################,,,,####,       
                ,###########''''           ''''###############################       
              ,#####''   ,,,,##########,,,,          '''####'''          '####       
            ,##' ,,,,###########################,,,                        '##       
           ' ,,###''''                  '''############,,,                           
         ,,##''                                '''############,,,,        ,,,,,,###''
      ,#''                                            '''#######################'''  
     '                                                          ''''####''''         
             ,#######,   #######,   ,#######,      ##                                
            ,#'     '#,  ##    ##  ,#'     '#,    #''#        ,####,   ,####,        
            ##       ##  ##   ,#'  ##            #'  '#       #'       #'  '#        
            ##       ##  #######   ##           ,######,      #####,   #    #        
            '#,     ,#'  ##    ##  '#,     ,#' ,#      #,     #,   #   #,  ,#        
             '#######'   ##     ##  '#######'  #'      '#     '####' # '####'        



                #########################################################
                #                        -***-                          #
                #          Department of theory and spectroscopy        #
                #                                                       #
                #                      Frank Neese                      #
                #                                                       #
                #     Directorship, Architecture, Infrastructure        #
                #                    SHARK, DRIVERS                     #
                #        Core code/Algorithms in most modules           #
                #                                                       #
                #        Max Planck Institute fuer Kohlenforschung      #
                #                Kaiser Wilhelm Platz 1                 #
                #                 D-45470 Muelheim/Ruhr                 #
                #                      Germany                          #
                #                                                       #
                #                  All rights reserved                  #
                #                        -***-                          #
                #########################################################


                         Program Version 6.0.1  -  RELEASE   -


 With contributions from (in alphabetic order):
[Max-Planck-Institut fuer Kohlenforschung]                               
  Daniel Aravena         : Magnetic Suceptibility                        
  Michael Atanasov       : Ab Initio Ligand Field Theory (pilot matlab implementation)
  Alexander A. Auer      : GIAO ZORA, VPT2 properties, NMR spectrum      
  Ute Becker             : All parallelization in ORCA, NUMFREQ, NUMCALC 
  Giovanni Bistoni       : ED, misc. LED, open-shell LED, HFLD           
  Martin Brehm           : Molecular dynamics                            
  Dmytro Bykov           : pre 5.0 version of the SCF Hessian            
  Marcos Casanova-Páez   : Triplet and SCS-CIS(D). UHF-(DLPNO)-IP/EA/STEOM-CCSD. UHF-CVS-IP/STEOM-CCSD   
  Vijay G. Chilkuri      : MRCI spin determinant printing, contributions to CSF-ICE 
  Pauline Colinet        : FMM embedding                                 
  Dipayan Datta          : RHF DLPNO-CCSD density                        
  Achintya Kumar Dutta   : EOM-CC, STEOM-CC                              
  Nicolas Foglia         : Exact transition moments, OPA infrastructure, MCD improvements    
  Dmitry Ganyushin       : Spin-Orbit,Spin-Spin,Magnetic field MRCI      
  Miquel Garcia-Rates    : C-PCM and meta-GGA Hessian, CCSD/C-PCM, Gaussian charge scheme 
  Tiago L. C. Gouveia    : GS-ROHF, GS-ROCIS                             
  Yang Guo               : DLPNO-NEVPT2, F12-NEVPT2, CIM, IAO-localization        
  Andreas Hansen         : Spin unrestricted coupled pair/coupled cluster methods 
  Ingolf Harden          : AUTO-CI MPn and infrastructure                
  Benjamin Helmich-Paris : MC-RPA, TRAH-(SCF,CASSCF), AVAS, COSX integrals, SCF dyn. polar. 
  Lee Huntington         : MR-EOM, pCC                                   
  Robert Izsak           : Overlap fitted RIJCOSX, COSX-SCS-MP3, EOM     
  Riya Kayal             : Wick's Theorem for AUTO-CI, AUTO-CI UHF-CCSDT 
  Emily Kempfer          : AUTO-CI, RHF CISDT and CCSDT                  
  Christian Kollmar      : KDIIS, OOCD, Brueckner-CCSD(T), CCSD density, CASPT2, CASPT2-K, improved NEVPT2 
  Axel Koslowski         : Symmetry handling                             
  Simone Kossmann        : meta-GGA functionals, TD-DFT gradient, OOMP2, (MP2 Hessian; deprecated post 5.0) 
  Lucas Lang             : DCDCAS                                        
  Marvin Lechner         : AUTO-CI (C++ implementation), FIC-MRCC        
  Spencer Leger          : CASSCF response                               
  Dagmar Lenk            : GEPOL surface, SMD, ORCA-2-JSON               
  Dimitrios Liakos       : Extrapolation schemes; Compound Job, initial MDCI parallelization 
  Dimitrios Manganas     : Further ROCIS development; embedding schemes. LFT, Crystal Embedding 
  Dimitrios Pantazis     : SARC Basis sets                               
  Anastasios Papadopoulos: AUTO-CI, single reference methods and gradients 
  Taras Petrenko         : pre 6.0 DFT Hessian and TD-DFT gradient, (ASA, deprecated), ECA, 1-Electron XAS/XES, NRVS 
  Peter Pinski           : DLPNO-MP2, DLPNO-MP2 Gradient                 
  Christoph Reimann      : Effective Core Potentials                     
  Marius Retegan         : Local ZFS, SOC                                
  Christoph Riplinger    : Optimizer, TS searches, QM/MM, DLPNO-CCSD(T), (RO)-DLPNO pert. Triples 
  Michael Roemelt        : Original ROCIS implementation                 
  Masaaki Saitow         : Open-shell DLPNO-CCSD energy and density      
  Barbara Sandhoefer     : DKH picture change effects                    
  Kantharuban Sivalingam : CASSCF convergence/infrastructure, NEVPT2 and variants, FIC-MRCI 
  Bernardo de Souza      : ESD, SOC TD-DFT                               
  Georgi L. Stoychev     : AutoAux, RI-MP2 NMR, DLPNO-MP2 response, X2C  
  Van Anh Tran           : RI-MP2 g-tensors                              
  Willem Van den Heuvel  : Paramagnetic NMR                              
  Zikuan Wang            : NOTCH, Electric field optimization            
  Frank Wennmohs         : Technical directorship and infrastructure     
  Hang Xu                : AUTO-CI-Response properties                   
                                                                         
[FACCTs GmbH]                                                            
  Markus Bursch, Miquel Garcia-Rates, Christoph Riplinger, Bernardo de Souza, Georgi L. Stoychev 
                                                                 
  APM, Basis sets (HGBS, AHGBS, def-TZVP (Ac-Lr), def2-XVPD (La-Lu)), CI-OPT, improved COSX, DLPNO-Multilevel,           
  DOCKER, DRACO, updates on ESD, GOAT, IRC, LR-CPCM, MBIS, meta-GGA TD-DFT gradient, ML-optimized integration grids, 
  MM, NACMEs, nearIR, NEB, NEB-TS, NL-DFT gradient (VV10), 2- and 3-layer-ONIOM, interface openCOSMO-RS, QMMM,   
  Crystal-QMMM, SF, symmetry and pop. for TD-DFT, r2SCAN hybrids, SOLVATOR                                   
                                                                         
[Other institutions]                                                     
  V. Asgeirsson          : NEB                                           
  Christoph Bannwarth    : sTDA-DFT, sTD-DFT, PBEh-3c, B97-3c, D3        
  Sebastian Ehlert       : rSCAN, r2SCAN, r2SCAN-3c, D4, dhf basis sets  
  Marvin Friede          : D4 for Fr, Ra, Ac-Lr                          
  Lars Goerigk           : TD-DFT with DH, B97 family of functionals     
  Stefan Grimme          : VdW corrections, initial TS optimization, DFT functionals, gCP, sTDA/sTD-DF 
  Waldemar Hujo          : DFT-NL                                        
  H. Jonsson             : NEB                                           
  Holger Kruse           : gCP                                           
  Marcel Mueller         : wB97X-3c, vDZP basis set                      
  Hagen Neugebauer       : wr2SCAN                                       
  Tobias Risthaus        : range-separated hybrid DFT                    
  Lukas Wittmann         : regularized MP2, r2SCAN double-hybrids, wr2SCAN        
                                                                         
We gratefully acknowledge several colleagues who have allowed us to      
interface, adapt or use parts of their codes:                            
  Ed Valeev, F. Pavosevic, A. Kumar             : LibInt (2-el integral package), F12 methods 
  Garnet Chan, S. Sharma, J. Yang, R. Olivares  : DMRG                   
  Ulf Ekstrom                                   : XCFun DFT Library      
  Mihaly Kallay                                 : mrcc  (arbitrary order and MRCC methods)
  Frank Weinhold                                : gennbo (NPA and NBO analysis)           
  Simon Mueller                                 : openCOSMO-RS                            
  Christopher J. Cramer and Donald G. Truhlar   : smd solvation model                     
  S Lehtola, MJT Oliveira, MAL Marques          : LibXC Library                           
  Liviu Ungur et al                             : ANISO software                          


 Your calculation uses the libint2 library for the computation of 2-el integrals
 For citations please refer to: http://libint.valeyev.net

 Your ORCA version has been built with support for libXC version: 6.2.2
 For citations please refer to: https://libxc.gitlab.io

 This ORCA versions uses:
   CBLAS   interface :  Fast vector & matrix operations
   LAPACKE interface :  Fast linear algebra routines
   SCALAPACK package :  Parallel linear algebra routines
   Shared memory     :  Shared parallel matrices
   BLAS/LAPACK       :  OpenBLAS 0.3.27  USE64BITINT DYNAMIC_ARCH NO_AFFINITY SkylakeX SINGLE_THREADED
        Core in use  :  SkylakeX
   Copyright (c) 2011-2014, The OpenBLAS Project


Your calculation utilizes the atom-pairwise dispersion correction
with the zero-damping scheme (D30)


XCFun DFT library Copyright 2009-2010 Ulf Ekstrom and contributors.
See http://admol.org/xcfun for more information.
This is free software; see the source code for copying conditions.
There is ABSOLUTELY NO WARRANTY; not even for MERCHANTABILITY or FITNESS FOR A PARTICULAR PURPOSE.
For details see the documentation.
Scientific users of this library should cite U. Ekstrom, L. Visscher, R. Bast, A. J. Thorvaldsen and K. Ruud;
J.Chem.Theor.Comp. 2010, DOI: 10.1021/ct100117s
XCFun Version 0.99 

================================================================================

----- Orbital basis set information -----
Your calculation utilizes the basis: def2-TZVP
   F. Weigend and R. Ahlrichs, Phys. Chem. Chem. Phys. 7, 3297 (2005).

----- AuxJ basis set information -----
Your calculation utilizes the auxiliary basis: def2/J
   F. Weigend, Phys. Chem. Chem. Phys. 8, 1057 (2006).

================================================================================
                                        WARNINGS
                       Please study these warnings very carefully!
================================================================================


WARNING: Geometry Optimization
  ===> : Switching off AutoStart
         For restart on a previous wavefunction, please use MOREAD

================================================================================
                                       INPUT FILE
================================================================================
NAME = opt.inp
|  1> ! wB97x-D3 def2-TZVP def2/J Opt
|  2> 
|  3> %pal nprocs 4 end
|  4> 
|  5> * xyz 0 1
|  6> C      2.708345    0.710713    0.098390
|  7> H      3.676431    1.194739    0.009403
|  8> H      2.578383    0.362158    1.119313
|  9> H      2.675842   -0.146101   -0.568298
| 10> C      1.616247    1.696675   -0.265033
| 11> H      1.601435    2.559062    0.408659
| 12> H      1.728822    2.056696   -1.292577
| 13> O      0.348567    1.019869   -0.171099
| 14> C     -0.719008    1.758338   -0.005284
| 15> O     -0.783973    2.949402    0.076469
| 16> C     -1.989036    0.855366    0.080087
| 17> F     -1.697093   -0.446661    0.072267
| 18> F     -2.676495    1.104908    1.197645
| 19> F     -2.802732    1.088267   -0.955000
| 20> *
| 21> 
| 22>                          ****END OF INPUT****
================================================================================

                       *****************************
                       * Geometry Optimization Run *
                       *****************************

Geometry optimization settings:
Update method            Update   .... BFGS
Choice of coordinates    CoordSys .... (2022) Redundant Internals
Initial Hessian          InHess   .... Almloef's Model
Max. no of cycles        MaxIter  .... 50

Convergence Tolerances:
Energy Change            TolE     ....  5.0000e-06 Eh
Max. Gradient            TolMAXG  ....  3.0000e-04 Eh/bohr
RMS Gradient             TolRMSG  ....  1.0000e-04 Eh/bohr
Max. Displacement        TolMAXD  ....  4.0000e-03 bohr
RMS Displacement         TolRMSD  ....  2.0000e-03 bohr
Strict Convergence                .... False

------------------------------------------------------------------------------
                        ORCA OPTIMIZATION COORDINATE SETUP
------------------------------------------------------------------------------

The optimization will be done in redundant internal coordinates (2022)
Making redundant internal coordinates   ...  (2022 redundants) done
Evaluating the initial hessian          ...  (Almloef) done
Evaluating the coordinates              ...  done
Calculating the B-matrix                .... done
Calculating the G-matrix                .... done
Diagonalizing the G-matrix              .... done
Small eigenvalue found = 2.168e-02
The first mode is                       ....   15
The number of degrees of freedom        ....   36

    -----------------------------------------------------------------
                    Redundant Internal Coordinates


    -----------------------------------------------------------------
         Definition                    Initial Value    Approx d2E/dq
    -----------------------------------------------------------------
      1. B(H   1,C   0)                  1.0860         0.365434   
      2. B(H   2,C   0)                  1.0866         0.364648   
      3. B(H   3,C   0)                  1.0861         0.365268   
      4. B(C   4,C   0)                  1.5155         0.393949   
      5. B(H   5,C   4)                  1.0944         0.354278   
      6. B(H   6,C   4)                  1.0946         0.354074   
      7. B(O   7,C   4)                  1.4401         0.465518   
      8. B(C   8,O   7)                  1.3086         0.754527   
      9. B(O   9,C   8)                  1.1956         1.142816   
     10. B(C  10,C   8)                  1.5606         0.333797   
     11. B(F  11,C  10)                  1.3344         0.637833   
     12. B(F  12,C  10)                  1.3356         0.634996   
     13. B(F  13,C  10)                  1.3371         0.631564   
     14. A(H   1,C   0,H   3)          109.1462         0.292166   
     15. A(H   1,C   0,H   2)          109.0613         0.292088   
     16. A(H   2,C   0,H   3)          108.6688         0.292067   
     17. A(H   2,C   0,C   4)          110.3533         0.327842   
     18. A(H   1,C   0,C   4)          109.4361         0.327958   
     19. A(H   3,C   0,C   4)          110.1487         0.327934   
     20. A(C   0,C   4,H   5)          112.0102         0.326287   
     21. A(H   6,C   4,O   7)          107.8389         0.333364   
     22. A(C   0,C   4,O   7)          108.2360         0.378446   
     23. A(H   5,C   4,H   6)          108.6675         0.289330   
     24. A(C   0,C   4,H   6)          111.4060         0.326256   
     25. A(H   5,C   4,O   7)          108.5577         0.333396   
     26. A(C   4,O   7,C   8)          117.4628         0.421552   
     27. A(O   7,C   8,C  10)          110.1395         0.399994   
     28. A(O   7,C   8,O   9)          127.9617         0.496512   
     29. A(O   9,C   8,C  10)          121.8988         0.430634   
     30. A(F  12,C  10,F  13)          107.5766         0.427865   
     31. A(F  11,C  10,F  13)          107.3720         0.428207   
     32. A(C   8,C  10,F  13)          110.6165         0.386053   
     33. A(F  11,C  10,F  12)          107.4473         0.428624   
     34. A(C   8,C  10,F  12)          110.8879         0.386418   
     35. A(C   8,C  10,F  11)          112.7180         0.386718   
     36. D(H   5,C   4,C   0,H   1)    -61.7809         0.012328   
     37. D(H   5,C   4,C   0,H   2)     58.2375         0.012328   
     38. D(H   6,C   4,C   0,H   2)   -179.8055         0.012328   
     39. D(H   6,C   4,C   0,H   3)    -59.8199         0.012328   
     40. D(H   6,C   4,C   0,H   1)     60.1762         0.012328   
     41. D(H   5,C   4,C   0,H   3)    178.2231         0.012328   
     42. D(C   8,O   7,C   4,C   0)    157.7994         0.017077   
     43. D(C   8,O   7,C   4,H   6)    -81.5559         0.017077   
     44. D(C   8,O   7,C   4,H   5)     36.0070         0.017077   
     45. D(C  10,C   8,O   7,C   4)   -179.7608         0.043295   
     46. D(O   9,C   8,O   7,C   4)      0.2586         0.043295   
     47. D(F  12,C  10,C   8,O   7)    125.4386         0.008499   
     48. D(F  11,C  10,C   8,O   9)   -175.0893         0.008499   
     49. D(F  12,C  10,C   8,O   9)    -54.5794         0.008499   
     50. D(F  11,C  10,C   8,O   7)      4.9287         0.008499   
     51. D(F  13,C  10,C   8,O   7)   -115.2927         0.008499   
    -----------------------------------------------------------------

Number of atoms                         .... 14
Number of degrees of freedom            .... 51


         *************************************************************
         *                GEOMETRY OPTIMIZATION CYCLE   1            *
         *************************************************************
---------------------------------
CARTESIAN COORDINATES (ANGSTROEM)
---------------------------------
  C      2.708345    0.710713    0.098390
  H      3.676431    1.194739    0.009403
  H      2.578383    0.362158    1.119313
  H      2.675842   -0.146101   -0.568298
  C      1.616247    1.696675   -0.265033
  H      1.601435    2.559062    0.408659
  H      1.728822    2.056696   -1.292577
  O      0.348567    1.019869   -0.171099
  C     -0.719008    1.758338   -0.005284
  O     -0.783973    2.949402    0.076469
  C     -1.989036    0.855366    0.080087
  F     -1.697093   -0.446661    0.072267
  F     -2.676495    1.104908    1.197645
  F     -2.802732    1.088267   -0.955000

----------------------------
CARTESIAN COORDINATES (A.U.)
----------------------------
  NO LB      ZA    FRAG     MASS         X           Y           Z
   0 C     6.0000    0    12.011    5.118030    1.343053    0.185930
   1 H     1.0000    0     1.008    6.947448    2.257730    0.017769
   2 H     1.0000    0     1.008    4.872438    0.684379    2.115195
   3 H     1.0000    0     1.008    5.056609   -0.276091   -1.073928
   4 C     6.0000    0    12.011    3.054264    3.206251   -0.500840
   5 H     1.0000    0     1.008    3.026274    4.835926    0.772254
   6 H     1.0000    0     1.008    3.267000    3.886592   -2.442617
   7 O     8.0000    0    15.999    0.658696    1.927273   -0.323330
   8 C     6.0000    0    12.011   -1.358728    3.322777   -0.009985
   9 O     8.0000    0    15.999   -1.481494    5.573562    0.144505
  10 C     6.0000    0    12.011   -3.758733    1.616407    0.151342
  11 F     9.0000    0    18.998   -3.207041   -0.844067    0.136565
  12 F     9.0000    0    18.998   -5.057843    2.087974    2.263221
  13 F     9.0000    0    18.998   -5.296396    2.056527   -1.804688

--------------------------------
INTERNAL COORDINATES (ANGSTROEM)
--------------------------------
 C      0   0   0     0.000000000000     0.00000000     0.00000000
 H      1   0   0     1.085997402502     0.00000000     0.00000000
 H      1   2   0     1.086583858429   109.06130842     0.00000000
 H      1   2   3     1.086121339883   109.14615342   241.41533788
 C      1   2   3     1.515544583302   109.43606571   120.80679019
 H      5   1   2     1.094436678834   112.01020806   298.21914536
 H      5   1   2     1.094593496693   111.40598015    60.17615394
 O      5   1   2     1.440105044916   108.23602519   178.57460020
 C      8   5   1     1.308643365784   117.46281386   157.79940184
 O      9   8   5     1.195632659444   127.96171152     0.25861560
 C      9   8   5     1.560646584339   110.13951790   180.23922861
 F     11   9   8     1.334378573111   112.71800747     4.92870192
 F     11   9   8     1.335592366633   110.88792188   125.43859646
 F     11   9   8     1.337067370698   110.61651239   244.70727977

---------------------------
INTERNAL COORDINATES (A.U.)
---------------------------
 C      0   0   0     0.000000000000     0.00000000     0.00000000
 H      1   0   0     2.052237672879     0.00000000     0.00000000
 H      1   2   0     2.053345913970   109.06130842     0.00000000
 H      1   2   3     2.052471880586   109.14615342   241.41533788
 C      1   2   3     2.863964206189   109.43606571   120.80679019
 H      5   1   2     2.068185593914   112.01020806   298.21914536
 H      5   1   2     2.068481936720   111.40598015    60.17615394
 O      5   1   2     2.721404138969   108.23602519   178.57460020
 C      8   5   1     2.472977568305   117.46281386   157.79940184
 O      9   8   5     2.259418283122   127.96171152     0.25861560
 C      9   8   5     2.949194636240   110.13951790   180.23922861
 F     11   9   8     2.521610062153   112.71800747     4.92870192
 F     11   9   8     2.523903799493   110.88792188   125.43859646
 F     11   9   8     2.526691153222   110.61651239   244.70727977

---------------------
BASIS SET INFORMATION
---------------------
There are 4 groups of distinct atoms

 Group   1 Type C   : 11s6p2d1f contracted to 5s3p2d1f pattern {62111/411/11/1}
 Group   2 Type H   : 5s1p contracted to 3s1p pattern {311/1}
 Group   3 Type O   : 11s6p2d1f contracted to 5s3p2d1f pattern {62111/411/11/1}
 Group   4 Type F   : 11s6p2d1f contracted to 5s3p2d1f pattern {62111/411/11/1}

Atom   0C    basis set group =>   1
Atom   1H    basis set group =>   2
Atom   2H    basis set group =>   2
Atom   3H    basis set group =>   2
Atom   4C    basis set group =>   1
Atom   5H    basis set group =>   2
Atom   6H    basis set group =>   2
Atom   7O    basis set group =>   3
Atom   8C    basis set group =>   1
Atom   9O    basis set group =>   3
Atom  10C    basis set group =>   1
Atom  11F    basis set group =>   4
Atom  12F    basis set group =>   4
Atom  13F    basis set group =>   4
---------------------------------
AUXILIARY/J BASIS SET INFORMATION
---------------------------------
There are 4 groups of distinct atoms

 Group   1 Type C   : 12s5p4d2f1g contracted to 6s4p3d1f1g pattern {711111/2111/211/2/1}
 Group   2 Type H   : 5s2p1d contracted to 3s1p1d pattern {311/2/1}
 Group   3 Type O   : 12s5p4d2f1g contracted to 6s4p3d1f1g pattern {711111/2111/211/2/1}
 Group   4 Type F   : 12s5p4d2f1g contracted to 6s4p3d1f1g pattern {711111/2111/211/2/1}

Atom   0C    basis set group =>   1
Atom   1H    basis set group =>   2
Atom   2H    basis set group =>   2
Atom   3H    basis set group =>   2
Atom   4C    basis set group =>   1
Atom   5H    basis set group =>   2
Atom   6H    basis set group =>   2
Atom   7O    basis set group =>   3
Atom   8C    basis set group =>   1
Atom   9O    basis set group =>   3
Atom  10C    basis set group =>   1
Atom  11F    basis set group =>   4
Atom  12F    basis set group =>   4
Atom  13F    basis set group =>   4


           ************************************************************
           *        Program running with 4 parallel MPI-processes     *
           *              working on a common directory               *
           ************************************************************
------------------------------------------------------------------------------
                             ORCA STARTUP CALCULATIONS
                           -- RI-GTO INTEGRALS CHOSEN --
------------------------------------------------------------------------------
------------------------------------------------------------------------------
                   ___                                                        
                  /   \      - P O W E R E D   B Y -                         
                 /     \                                                     
                 |  |  |   _    _      __       _____    __    __             
                 |  |  |  | |  | |    /  \     |  _  \  |  |  /  |          
                  \  \/   | |  | |   /    \    | | | |  |  | /  /          
                 / \  \   | |__| |  /  /\  \   | |_| |  |  |/  /          
                |  |  |   |  __  | /  /__\  \  |    /   |      \           
                |  |  |   | |  | | |   __   |  |    \   |  |\   \          
                \     /   | |  | | |  |  |  |  | |\  \  |  | \   \       
                 \___/    |_|  |_| |__|  |__|  |_| \__\ |__|  \__/        
                                                                              
                      - O R C A' S   B I G   F R I E N D -                    
                                      &                                       
                       - I N T E G R A L  F E E D E R -                       
                                                                              
 v1 FN, 2020, v2 2021, v3 2022-2024                                           
------------------------------------------------------------------------------


----------------------
SHARK INTEGRAL PACKAGE
----------------------

Number of atoms                             ...     14
Number of basis functions                   ...    309
Number of shells                            ...    119
Maximum angular momentum                    ...      3
Integral batch strategy                     ... SHARK/LIBINT Hybrid
RI-J (if used) integral strategy            ... SPLIT-RIJ (Revised 2003 algorithm where possible)
Printlevel                                  ...      1
Contraction scheme used                     ... SEGMENTED contraction
Prescreening option                         ... SCHWARTZ
   Thresh                                   ... 2.500e-11
   Tcut                                     ... 2.500e-12
   Tpresel                                  ... 2.500e-12 
Coulomb Range Separation                    ... NOT USED
Exchange Range Separation                   ... Long Range
   Mu parameter                             ... 2.500e-01
   Scaling (regular/separated)              ... 1.957e-01 8.043e-01
Multipole approximations                    ... NOT USED
Finite Nucleus Model                        ... NOT USED
CABS basis                                  ... NOT available
Auxiliary Coulomb fitting basis             ... AVAILABLE
   # of basis functions in Aux-J            ...    496
   # of shells in Aux-J                     ...    160
   Maximum angular momentum in Aux-J        ...      4
Auxiliary J/K fitting basis                 ... NOT available
Auxiliary Correlation fitting basis         ... NOT available
Auxiliary 'external' fitting basis          ... NOT available

Checking pre-screening integrals            ... done (  0.0 sec) Dimension = 119
Check shell pair data                       ... done (  0.0 sec)
Shell pair information
Shell pair cut-off parameter TPreSel        ...   2.5e-12
Total number of shell pairs                 ...      7140
Shell pairs after pre-screening             ...      6076
Total number of primitive shell pairs       ...     22368
Primitive shell pairs kept                  ...     13775
          la=0 lb=0:   1486 shell pairs
          la=1 lb=0:   1674 shell pairs
          la=1 lb=1:    486 shell pairs
          la=2 lb=0:    894 shell pairs
          la=2 lb=1:    517 shell pairs
          la=2 lb=2:    152 shell pairs
          la=3 lb=0:    435 shell pairs
          la=3 lb=1:    254 shell pairs
          la=3 lb=2:    139 shell pairs
          la=3 lb=3:     39 shell pairs

Calculating one electron integrals          ... done (  0.0 sec)
Calculating RI/J V-Matrix + Cholesky decomp.... done (  0.0 sec)
Calculating Nuclear repulsion               ... done (  0.0 sec) ENN=    500.380803656128 Eh

Diagonalization of the overlap matrix:
Smallest eigenvalue                        ... 4.421e-04
Time for diagonalization                   ...    0.011 sec
Threshold for overlap eigenvalues          ... 1.000e-07
Number of eigenvalues below threshold      ... 0
Time for construction of square roots      ...    0.005 sec
Total time needed                          ...    0.018 sec

-------------------
DFT GRID GENERATION
-------------------

General Integration Accuracy     IntAcc      ... 4.388
Radial Grid Type                 RadialGrid  ... OptM3 with GC (2021)
Angular Grid (max. ang.)         AngularGrid ... 4 (Lebedev-302)
Angular grid pruning method      GridPruning ... 4 (adaptive)
Weight generation scheme         WeightScheme... mBecke (2022)
Basis function cutoff            BFCut       ... 1.0000e-11
Integration weight cutoff        WCut        ... 1.0000e-14
Partially contracted basis set               ... off
Rotationally invariant grid construction     ... off
Angular grids for H and He will be reduced by one unit

Total number of grid points                  ...    70827
Total number of batches                      ...     1116
Average number of points per batch           ...       63
Average number of grid points per atom       ...     5059

--------------------
COSX GRID GENERATION
--------------------

GRIDX 1
-------
General Integration Accuracy     IntAcc      ... 3.816
Radial Grid Type                 RadialGrid  ... OptM3 with GC (2021)
Angular Grid (max. ang.)         AngularGrid ... 1 (Lebedev-50)
Angular grid pruning method      GridPruning ... 4 (adaptive)
Weight generation scheme         WeightScheme... mBecke (2022)
Basis function cutoff            BFCut       ... 1.0000e-11
Integration weight cutoff        WCut        ... 1.0000e-14
Partially contracted basis set               ... on
Rotationally invariant grid construction     ... off
Angular grids for H and He will be reduced by one unit

Total number of grid points                  ...     9011
Total number of batches                      ...       79
Average number of points per batch           ...      114
Average number of grid points per atom       ...      644
UseSFitting                                  ... on

GRIDX 2
-------
General Integration Accuracy     IntAcc      ... 4.020
Radial Grid Type                 RadialGrid  ... OptM3 with GC (2021)
Angular Grid (max. ang.)         AngularGrid ... 2 (Lebedev-110)
Angular grid pruning method      GridPruning ... 4 (adaptive)
Weight generation scheme         WeightScheme... mBecke (2022)
Basis function cutoff            BFCut       ... 1.0000e-11
Integration weight cutoff        WCut        ... 1.0000e-14
Partially contracted basis set               ... on
Rotationally invariant grid construction     ... off
Angular grids for H and He will be reduced by one unit

Total number of grid points                  ...    20331
Total number of batches                      ...      166
Average number of points per batch           ...      122
Average number of grid points per atom       ...     1452
UseSFitting                                  ... on

GRIDX 3
-------
General Integration Accuracy     IntAcc      ... 4.338
Radial Grid Type                 RadialGrid  ... OptM3 with GC (2021)
Angular Grid (max. ang.)         AngularGrid ... 3 (Lebedev-194)
Angular grid pruning method      GridPruning ... 4 (adaptive)
Weight generation scheme         WeightScheme... mBecke (2022)
Basis function cutoff            BFCut       ... 1.0000e-11
Integration weight cutoff        WCut        ... 1.0000e-14
Partially contracted basis set               ... on
Rotationally invariant grid construction     ... off
Angular grids for H and He will be reduced by one unit

Total number of grid points                  ...    44900
Total number of batches                      ...      356
Average number of points per batch           ...      126
Average number of grid points per atom       ...     3207
UseSFitting                                  ... on
Initializing property integral containers    ... done (  0.0 sec)

SHARK setup successfully completed in   1.1 seconds

Maximum memory used throughout the entire STARTUP-calculation: 27.8 MB


           ************************************************************
           *        Program running with 4 parallel MPI-processes     *
           *              working on a common directory               *
           ************************************************************
-------------------------------------------------------------------------------
                                 ORCA GUESS
                   Start orbitals & Density for SCF / CASSCF
-------------------------------------------------------------------------------

------------
SCF SETTINGS
------------
Hamiltonian:
 Density Functional     Method          .... DFT(GTOs)
 Exchange Functional    Exchange        .... WB97X-D3
 Correlation Functional Correlation     .... WB97X-D3
 Gradients option       PostSCFGGA      .... off
 Hybrid DFT is turned on
   Fraction HF Exchange ScalHFX         ....  0.195728
   Scaling of DF-GGA-X  ScalDFX         ....  0.000000
   Scaling of DF-GGA-C  ScalDFC         ....  1.000000
   Scaling of DF-LDA-C  ScalLDAC        ....  1.000000
   Perturbative correction              ....  0.000000
 Long-range corrected/Screened/Range-Separated Hybrid DFT is turned on
   Amount of maximum screened exact exchange              ....  0.804272
   Range separation parameter mu (erf(mu*r12)/r12)        ....  0.250000
 RI-approximation to the Coulomb term is turned on
   Number of AuxJ basis functions       .... 496
   RIJ-COSX (HFX calculated with COS-X)).... on


General Settings:
 Integral files         IntName         .... opt
 Hartree-Fock type      HFTyp           .... RHF
 Total Charge           Charge          ....    0
 Multiplicity           Mult            ....    1
 Number of Electrons    NEL             ....   72
 Basis Dimension        Dim             ....  309
 Nuclear Repulsion      ENuc            ....    500.3808036561 Eh

Convergence Acceleration:
 AO-DIIS                CNVDIIS         .... on
   Start iteration      DIISMaxIt       ....    12
   Startup error        DIISStart       ....  0.200000
   # of expansion vecs  DIISMaxEq       ....     5
   Bias factor          DIISBfac        ....   1.050
   Max. coefficient     DIISMaxC        ....  10.000
 MO-DIIS                CNVKDIIS        .... off
 Trust-Rad. Augm. Hess. CNVTRAH         .... auto
   Auto Start mean grad. ratio tolernc. ....  1.125000
   Auto Start start iteration           ....    50
   Auto Start num. interpolation iter.  ....    10
   Max. Number of Micro iterations      ....    24
   Max. Number of Macro iterations      .... Maxiter - #DIIS iter
   Number of Davidson start vectors     ....     2
   Converg. threshold    (grad. norm)   ....   1.000e-05
   Grad. Scal. Fac. for Micro threshold ....   0.100
   Minimum threshold for Micro iter.    ....   1.000e-02
   NR start threshold (gradient norm)   ....   1.000e-04
   Initial trust radius                 ....   0.400
   Minimum AH scaling param. (alpha)    ....   1.000
   Maximum AH scaling param. (alpha)    .... 1000.000
   Quad. conv. algorithm                .... NR
   White noise on init. David. guess    .... on
   Maximum white noise                  ....   0.010
   Pseudo random numbers                .... off
   Inactive MOs                         .... canonical
   Orbital update algorithm             .... Taylor
   Preconditioner                       .... Diag
   Full preconditioner red. dimension   ....   250
 SOSCF                  CNVSOSCF        .... on
   Start iteration      SOSCFMaxIt      ....   150
   Startup grad/error   SOSCFStart      ....  0.003300
   Hessian update       SOSCFHessUp     .... L-BFGS
 Level Shifting         CNVShift        .... on
   Level shift para.    LevelShift      ....    0.2500
   Turn off err/grad.   ShiftErr        ....    0.0010
 Zerner damping         CNVZerner       .... off
 Static damping         CNVDamp         .... on
   Fraction old density DampFac         ....    0.7000
   Max. Damping (<1)    DampMax         ....    0.9800
   Min. Damping (>=0)   DampMin         ....    0.0000
   Turn off err/grad.   DampErr         ....    0.1000

SCF Procedure:
 Maximum # iterations   MaxIter         ....   125
 SCF integral mode      SCFMode         .... Direct
   Integral package                     .... SHARK and LIBINT hybrid scheme
 Reset frequency        DirectResetFreq ....    20
 Integral Threshold     Thresh          ....  2.500e-11 Eh
 Primitive CutOff       TCut            ....  2.500e-12 Eh

Convergence Tolerance:
 Convergence Check Mode ConvCheckMode   .... Total+1el-Energy
 Convergence forced     ConvForced      .... 0
 Energy Change          TolE            ....  1.000e-08 Eh
 1-El. energy change                    ....  1.000e-05 Eh
 Orbital Gradient       TolG            ....  1.000e-05
 Orbital Rotation angle TolX            ....  1.000e-05
 DIIS Error             TolErr          ....  5.000e-07

------------------------------
INITIAL GUESS: MODEL POTENTIAL
------------------------------
Loading Hartree-Fock densities                     ... done
Calculating cut-offs                               ... done
Initializing the effective Hamiltonian             ... done
Setting up the integral package (SHARK)            ... done
Starting the Coulomb interaction                   ... done (   0.1 sec)
Making the grid                                    ... done (   0.1 sec)
Mapping shells                                     ... done
Starting the XC term evaluation                    ... done (   0.1 sec)
  promolecular density results
     # of electrons  =     71.998748203
     EX              =    -68.264304801
     EC              =     -2.462655298
     EX+EC           =    -70.726960099
Transforming the Hamiltonian                       ... done (   0.0 sec)
Diagonalizing the Hamiltonian                      ... done (   0.0 sec)
Back transforming the eigenvectors                 ... done (   0.0 sec)
Now organizing SCF variables                       ... done
                      ------------------
                      INITIAL GUESS DONE (   0.3 sec)
                      ------------------
             **** ENERGY FILE WAS UPDATED (opt.en.tmp) ****
Finished Guess after   0.6 sec
Maximum memory used throughout the entire GUESS-calculation: 19.1 MB


           ************************************************************
           *        Program running with 4 parallel MPI-processes     *
           *              working on a common directory               *
           ************************************************************

-------------------------------------------------------------------------------------------
                                      ORCA LEAN-SCF
                              memory conserving SCF solver
-------------------------------------------------------------------------------------------

----------------------------------------D-I-I-S--------------------------------------------
Iteration    Energy (Eh)           Delta-E    RMSDP     MaxDP     DIISErr   Damp  Time(sec)
-------------------------------------------------------------------------------------------
               ***  Starting incremental Fock matrix formation  ***
    1    -605.2859146154635255     0.00e+00  1.00e-03  4.86e-02  2.82e-01  0.700   3.9
    2    -605.3907837887352343    -1.05e-01  6.59e-04  2.91e-02  1.29e-01  0.700   1.8
                               ***Turning on AO-DIIS***
    3    -605.4342877721667264    -4.35e-02  2.94e-04  8.70e-03  5.28e-02  0.700   1.7
    4    -605.4610731146194667    -2.68e-02  6.03e-04  1.97e-02  2.97e-02  0.000   1.7
    5    -605.5204101634203653    -5.93e-02  8.79e-05  2.80e-03  5.80e-03  0.000   1.7
                              *** Initializing SOSCF ***
---------------------------------------S-O-S-C-F--------------------------------------
Iteration    Energy (Eh)           Delta-E    RMSDP     MaxDP     MaxGrad    Time(sec)
--------------------------------------------------------------------------------------
    6    -605.5205584048089804    -1.48e-04  3.49e-05  1.04e-03  2.41e-03     1.8
               *** Restarting incremental Fock matrix formation ***
    7    -605.5205895988028715    -3.12e-05  2.26e-05  8.92e-04  6.95e-04     3.7
    8    -605.5205948254526902    -5.23e-06  2.11e-05  7.25e-04  2.66e-04     2.8
    9    -605.5205959941408764    -1.17e-06  7.68e-06  2.40e-04  1.48e-04     2.9
   10    -605.5205965808306701    -5.87e-07  1.87e-06  5.11e-05  2.70e-05     2.7
   11    -605.5205965834090875    -2.58e-09  8.43e-07  2.47e-05  2.47e-05     2.3
                 **** Energy Check signals convergence ****

               *****************************************************
               *                     SUCCESS                       *
               *           SCF CONVERGED AFTER  11 CYCLES          *
               *****************************************************

Recomputing exchange energy using gridx3       ... done (    6.738 sec)
Old exchange energy                            :    -21.367402722 Eh
New exchange energy                            :    -21.367426908 Eh
Exchange energy change after final integration :     -0.000024186 Eh
Total energy after final integration           :   -605.520620769 Eh
             **** ENERGY FILE WAS UPDATED (opt.en.tmp) ****

----------------
TOTAL SCF ENERGY
----------------

Total Energy       :       -605.52062076932361 Eh          -16477.05377 eV

Components:
Nuclear Repulsion  :        500.38080365612751 Eh           13616.05389 eV
Electronic Energy  :      -1105.90140023953654 Eh          -30093.10700 eV
One Electron Energy:      -1828.10470036361153 Eh          -49745.25790 eV
Two Electron Energy:        722.20330012407499 Eh           19652.15089 eV

Virial components:
Potential Energy   :      -1208.89593415407330 Eh          -32895.73075 eV
Kinetic Energy     :        603.37531338474969 Eh           16418.67699 eV
Virial Ratio       :          2.00355551070285

DFT components:
N(Alpha)           :       35.999961271374 electrons
N(Beta)            :       35.999961271374 electrons
N(Total)           :       71.999922542749 electrons
E(XC)              :      -50.730007994880 Eh       

---------------
SCF CONVERGENCE
---------------

  Last Energy change         ...    2.5784e-09  Tolerance :   1.0000e-08
  Last MAX-Density change    ...    2.4654e-05  Tolerance :   1.0000e-07
  Last RMS-Density change    ...    8.4252e-07  Tolerance :   5.0000e-09
  Last DIIS Error            ...    2.4146e-03  Tolerance :   5.0000e-07
  Last Orbital Gradient      ...    2.4674e-05  Tolerance :   1.0000e-05
  Last Orbital Rotation      ...    3.4930e-05  Tolerance :   1.0000e-05


----------------
ORBITAL ENERGIES
----------------

  NO   OCC          E(Eh)            E(eV) 
   0   2.0000     -24.828936      -675.6297 
   1   2.0000     -24.828610      -675.6208 
   2   2.0000     -24.827978      -675.6036 
   3   2.0000     -19.314341      -525.5699 
   4   2.0000     -19.251657      -523.8642 
   5   2.0000     -10.546010      -286.9715 
   6   2.0000     -10.444981      -284.2224 
   7   2.0000     -10.359760      -281.9034 
   8   2.0000     -10.290493      -280.0186 
   9   2.0000      -1.449815       -39.4515 
  10   2.0000      -1.356109       -36.9016 
  11   2.0000      -1.356086       -36.9010 
  12   2.0000      -1.267998       -34.5040 
  13   2.0000      -1.175803       -31.9952 
  14   2.0000      -0.929913       -25.3042 
  15   2.0000      -0.863238       -23.4899 
  16   2.0000      -0.791380       -21.5346 
  17   2.0000      -0.735852       -20.0235 
  18   2.0000      -0.715192       -19.4614 
  19   2.0000      -0.713909       -19.4264 
  20   2.0000      -0.694782       -18.9060 
  21   2.0000      -0.630673       -17.1615 
  22   2.0000      -0.610213       -16.6047 
  23   2.0000      -0.588619       -16.0171 
  24   2.0000      -0.584146       -15.8954 
  25   2.0000      -0.573767       -15.6130 
  26   2.0000      -0.558234       -15.1903 
  27   2.0000      -0.546134       -14.8611 
  28   2.0000      -0.538094       -14.6423 
  29   2.0000      -0.524514       -14.2727 
  30   2.0000      -0.520359       -14.1597 
  31   2.0000      -0.508753       -13.8439 
  32   2.0000      -0.485643       -13.2150 
  33   2.0000      -0.470299       -12.7975 
  34   2.0000      -0.431269       -11.7354 
  35   2.0000      -0.408433       -11.1140 
  36   0.0000       0.050463         1.3732 
  37   0.0000       0.108893         2.9631 
  38   0.0000       0.149035         4.0555 
  39   0.0000       0.160658         4.3717 
  40   0.0000       0.169034         4.5996 
  41   0.0000       0.179280         4.8785 
  42   0.0000       0.198812         5.4100 
  43   0.0000       0.207216         5.6386 
  44   0.0000       0.222393         6.0516 
  45   0.0000       0.238522         6.4905 
  46   0.0000       0.248843         6.7714 
*Only the first 10 virtual orbitals were printed.

                    ********************************
                    * MULLIKEN POPULATION ANALYSIS *
                    ********************************

-----------------------
MULLIKEN ATOMIC CHARGES
-----------------------
   0 C :   -0.326790
   1 H :    0.124876
   2 H :    0.125834
   3 H :    0.128593
   4 C :   -0.065691
   5 H :    0.138073
   6 H :    0.125197
   7 O :   -0.229584
   8 C :    0.279288
   9 O :   -0.318492
  10 C :    0.490568
  11 F :   -0.156704
  12 F :   -0.156705
  13 F :   -0.158462
Sum of atomic charges:   -0.0000000

--------------------------------
MULLIKEN REDUCED ORBITAL CHARGES
--------------------------------
  0 C s       :     3.244195  s :     3.244195
      pz      :     1.060018  p :     3.030849
      px      :     0.977336
      py      :     0.993495
      dz2     :     0.010030  d :     0.048609
      dxz     :     0.004008
      dyz     :     0.014376
      dx2y2   :     0.011066
      dxy     :     0.009129
      f0      :     0.000519  f :     0.003137
      f+1     :     0.000243
      f-1     :     0.000635
      f+2     :     0.000007
      f-2     :     0.000422
      f+3     :     0.000539
      f-3     :     0.000773

  1 H s       :     0.853599  s :     0.853599
      pz      :     0.004323  p :     0.021525
      px      :     0.011626
      py      :     0.005576

  2 H s       :     0.852727  s :     0.852727
      pz      :     0.011943  p :     0.021438
      px      :     0.004174
      py      :     0.005321

  3 H s       :     0.849973  s :     0.849973
      pz      :     0.007255  p :     0.021435
      px      :     0.004141
      py      :     0.010040

  4 C s       :     3.223186  s :     3.223186
      pz      :     1.059244  p :     2.706890
      px      :     0.704921
      py      :     0.942724
      dz2     :     0.015759  d :     0.126100
      dxz     :     0.023675
      dyz     :     0.025077
      dx2y2   :     0.036975
      dxy     :     0.024614
      f0      :     0.001416  f :     0.009515
      f+1     :     0.000705
      f-1     :     0.000864
      f+2     :     0.000605
      f-2     :     0.001441
      f+3     :     0.002544
      f-3     :     0.001940

  5 H s       :     0.840652  s :     0.840652
      pz      :     0.007347  p :     0.021275
      px      :     0.003081
      py      :     0.010847

  6 H s       :     0.854168  s :     0.854168
      pz      :     0.012519  p :     0.020635
      px      :     0.002951
      py      :     0.005164

  7 O s       :     3.764564  s :     3.764564
      pz      :     1.677028  p :     4.422231
      px      :     1.181472
      py      :     1.563731
      dz2     :     0.004631  d :     0.040568
      dxz     :     0.006464
      dyz     :     0.004438
      dx2y2   :     0.008271
      dxy     :     0.016764
      f0      :     0.000296  f :     0.002222
      f+1     :     0.000396
      f-1     :     0.000167
      f+2     :     0.000109
      f-2     :     0.000295
      f+3     :     0.000466
      f-3     :     0.000493

  8 C s       :     3.072200  s :     3.072200
      pz      :     0.770559  p :     2.347059
      px      :     0.800763
      py      :     0.775738
      dz2     :     0.009882  d :     0.276671
      dxz     :     0.027142
      dyz     :     0.065510
      dx2y2   :     0.052368
      dxy     :     0.121769
      f0      :     0.003067  f :     0.024782
      f+1     :     0.001507
      f-1     :     0.001769
      f+2     :     0.003236
      f-2     :     0.002235
      f+3     :     0.009305
      f-3     :     0.003662

  9 O s       :     3.837089  s :     3.837089
      pz      :     1.380500  p :     4.447352
      px      :     1.754107
      py      :     1.312745
      dz2     :     0.002791  d :     0.032133
      dxz     :     0.000159
      dyz     :     0.011803
      dx2y2   :     0.008699
      dxy     :     0.008681
      f0      :     0.000200  f :     0.001918
      f+1     :     0.000023
      f-1     :     0.000174
      f+2     :     0.000488
      f-2     :     0.000023
      f+3     :     0.000591
      f-3     :     0.000419

 10 C s       :     3.008843  s :     3.008843
      pz      :     0.622628  p :     2.107718
      px      :     0.795241
      py      :     0.689849
      dz2     :     0.078007  d :     0.352467
      dxz     :     0.056521
      dyz     :     0.086820
      dx2y2   :     0.057132
      dxy     :     0.073987
      f0      :     0.008822  f :     0.040403
      f+1     :     0.004844
      f-1     :     0.004534
      f+2     :     0.007344
      f-2     :     0.005613
      f+3     :     0.004842
      f-3     :     0.004404

 11 F s       :     3.914157  s :     3.914157
      pz      :     1.891643  p :     5.225303
      px      :     1.878593
      py      :     1.455067
      dz2     :     0.002422  d :     0.016466
      dxz     :     0.000326
      dyz     :     0.003006
      dx2y2   :     0.006498
      dxy     :     0.004213
      f0      :     0.000062  f :     0.000778
      f+1     :     0.000018
      f-1     :     0.000152
      f+2     :     0.000082
      f-2     :     0.000030
      f+3     :     0.000212
      f-3     :     0.000222

 12 F s       :     3.915822  s :     3.915822
      pz      :     1.576181  p :     5.223828
      px      :     1.764498
      py      :     1.883149
      dz2     :     0.004909  d :     0.016285
      dxz     :     0.005992
      dyz     :     0.002755
      dx2y2   :     0.001410
      dxy     :     0.001219
      f0      :     0.000145  f :     0.000770
      f+1     :     0.000268
      f-1     :     0.000092
      f+2     :     0.000116
      f-2     :     0.000110
      f+3     :     0.000020
      f-3     :     0.000018

 13 F s       :     3.915984  s :     3.915984
      pz      :     1.624396  p :     5.225505
      px      :     1.715785
      py      :     1.885323
      dz2     :     0.003867  d :     0.016210
      dxz     :     0.006506
      dyz     :     0.002296
      dx2y2   :     0.001961
      dxy     :     0.001580
      f0      :     0.000109  f :     0.000763
      f+1     :     0.000256
      f-1     :     0.000059
      f+2     :     0.000152
      f-2     :     0.000122
      f+3     :     0.000034
      f-3     :     0.000031



                     *******************************
                     * LOEWDIN POPULATION ANALYSIS *
                     *******************************

----------------------
LOEWDIN ATOMIC CHARGES
----------------------
   0 C :   -0.299708
   1 H :    0.128185
   2 H :    0.124704
   3 H :    0.125160
   4 C :   -0.286573
   5 H :    0.134903
   6 H :    0.132006
   7 O :    0.297897
   8 C :   -0.481932
   9 O :    0.145267
  10 C :   -0.650006
  11 F :    0.210309
  12 F :    0.211340
  13 F :    0.208450

-------------------------------
LOEWDIN REDUCED ORBITAL CHARGES
-------------------------------
  0 C s       :     2.830534  s :     2.830534
      pz      :     1.078193  p :     3.194940
      px      :     1.052211
      py      :     1.064536
      dz2     :     0.051981  d :     0.249332
      dxz     :     0.021694
      dyz     :     0.064473
      dx2y2   :     0.054182
      dxy     :     0.057001
      f0      :     0.002941  f :     0.024902
      f+1     :     0.003421
      f-1     :     0.002637
      f+2     :     0.003331
      f-2     :     0.004015
      f+3     :     0.003568
      f-3     :     0.004988

  1 H s       :     0.809907  s :     0.809907
      pz      :     0.013870  p :     0.061908
      px      :     0.030286
      py      :     0.017751

  2 H s       :     0.813260  s :     0.813260
      pz      :     0.033304  p :     0.062036
      px      :     0.013346
      py      :     0.015386

  3 H s       :     0.812632  s :     0.812632
      pz      :     0.022067  p :     0.062208
      px      :     0.013077
      py      :     0.027064

  4 C s       :     2.806439  s :     2.806439
      pz      :     1.070418  p :     2.917872
      px      :     0.829525
      py      :     1.017929
      dz2     :     0.075791  d :     0.494978
      dxz     :     0.077080
      dyz     :     0.094260
      dx2y2   :     0.120566
      dxy     :     0.127281
      f0      :     0.007622  f :     0.067284
      f+1     :     0.007358
      f-1     :     0.004146
      f+2     :     0.007326
      f-2     :     0.009188
      f+3     :     0.016179
      f-3     :     0.015465

  5 H s       :     0.804499  s :     0.804499
      pz      :     0.022862  p :     0.060598
      px      :     0.009004
      py      :     0.028732

  6 H s       :     0.809194  s :     0.809194
      pz      :     0.034825  p :     0.058801
      px      :     0.009279
      py      :     0.014697

  7 O s       :     3.230744  s :     3.230744
      pz      :     1.536396  p :     4.352356
      px      :     1.262346
      py      :     1.553614
      dz2     :     0.011457  d :     0.111889
      dxz     :     0.019432
      dyz     :     0.007762
      dx2y2   :     0.030675
      dxy     :     0.042563
      f0      :     0.000624  f :     0.007114
      f+1     :     0.000882
      f-1     :     0.000321
      f+2     :     0.000205
      f-2     :     0.001157
      f+3     :     0.002376
      f-3     :     0.001550

  8 C s       :     2.756606  s :     2.756606
      pz      :     0.743650  p :     2.640084
      px      :     0.903587
      py      :     0.992847
      dz2     :     0.068083  d :     0.934264
      dxz     :     0.080566
      dyz     :     0.173049
      dx2y2   :     0.222026
      dxy     :     0.390540
      f0      :     0.009939  f :     0.150977
      f+1     :     0.008488
      f-1     :     0.012233
      f+2     :     0.021624
      f-2     :     0.013562
      f+3     :     0.059647
      f-3     :     0.025485

  9 O s       :     3.394348  s :     3.394348
      pz      :     1.299548  p :     4.384223
      px      :     1.592931
      py      :     1.491745
      dz2     :     0.008431  d :     0.069650
      dxz     :     0.000281
      dyz     :     0.015963
      dx2y2   :     0.026356
      dxy     :     0.018619
      f0      :     0.000509  f :     0.006512
      f+1     :     0.000117
      f-1     :     0.001010
      f+2     :     0.000952
      f-2     :     0.000088
      f+3     :     0.001909
      f-3     :     0.001926

 10 C s       :     2.766151  s :     2.766151
      pz      :     0.770633  p :     2.495754
      px      :     0.898852
      py      :     0.826269
      dz2     :     0.256636  d :     1.130921
      dxz     :     0.240896
      dyz     :     0.203476
      dx2y2   :     0.200975
      dxy     :     0.228940
      f0      :     0.045731  f :     0.257181
      f+1     :     0.039342
      f-1     :     0.034327
      f+2     :     0.046390
      f-2     :     0.033970
      f+3     :     0.029068
      f-3     :     0.028354

 11 F s       :     3.595687  s :     3.595687
      pz      :     1.814516  p :     5.161232
      px      :     1.808629
      py      :     1.538087
      dz2     :     0.004649  d :     0.031118
      dxz     :     0.000578
      dyz     :     0.004876
      dx2y2   :     0.013060
      dxy     :     0.007955
      f0      :     0.000136  f :     0.001654
      f+1     :     0.000039
      f-1     :     0.000301
      f+2     :     0.000165
      f-2     :     0.000074
      f+3     :     0.000474
      f-3     :     0.000465

 12 F s       :     3.597283  s :     3.597283
      pz      :     1.617648  p :     5.158985
      px      :     1.731388
      py      :     1.809948
      dz2     :     0.009040  d :     0.030765
      dxz     :     0.011981
      dyz     :     0.004941
      dx2y2   :     0.002733
      dxy     :     0.002071
      f0      :     0.000334  f :     0.001627
      f+1     :     0.000516
      f-1     :     0.000189
      f+2     :     0.000266
      f-2     :     0.000237
      f+3     :     0.000049
      f-3     :     0.000035

 13 F s       :     3.598511  s :     3.598511
      pz      :     1.648637  p :     5.160765
      px      :     1.700433
      py      :     1.811695
      dz2     :     0.007079  d :     0.030659
      dxz     :     0.012893
      dyz     :     0.004118
      dx2y2   :     0.003860
      dxy     :     0.002709
      f0      :     0.000264  f :     0.001616
      f+1     :     0.000492
      f-1     :     0.000120
      f+2     :     0.000332
      f-2     :     0.000265
      f+3     :     0.000080
      f-3     :     0.000063



                      *****************************
                      * MAYER POPULATION ANALYSIS *
                      *****************************

  NA   - Mulliken gross atomic population
  ZA   - Total nuclear charge
  QA   - Mulliken gross atomic charge
  VA   - Mayer's total valence
  BVA  - Mayer's bonded valence
  FA   - Mayer's free valence

  ATOM       NA         ZA         QA         VA         BVA        FA
  0 C      6.3268     6.0000    -0.3268     3.9158     3.9158     0.0000
  1 H      0.8751     1.0000     0.1249     0.9737     0.9737    -0.0000
  2 H      0.8742     1.0000     0.1258     0.9754     0.9754     0.0000
  3 H      0.8714     1.0000     0.1286     0.9724     0.9724     0.0000
  4 C      6.0657     6.0000    -0.0657     3.8414     3.8414     0.0000
  5 H      0.8619     1.0000     0.1381     0.9722     0.9722     0.0000
  6 H      0.8748     1.0000     0.1252     0.9625     0.9625     0.0000
  7 O      8.2296     8.0000    -0.2296     2.1602     2.1602    -0.0000
  8 C      5.7207     6.0000     0.2793     4.2429     4.2429    -0.0000
  9 O      8.3185     8.0000    -0.3185     2.1848     2.1848    -0.0000
 10 C      5.5094     6.0000     0.4906     4.4385     4.4385     0.0000
 11 F      9.1567     9.0000    -0.1567     1.1527     1.1527    -0.0000
 12 F      9.1567     9.0000    -0.1567     1.1521     1.1521    -0.0000
 13 F      9.1585     9.0000    -0.1585     1.1474     1.1474     0.0000

  Mayer bond orders larger than 0.100000
B(  0-C ,  1-H ) :   0.9688 B(  0-C ,  2-H ) :   0.9718 B(  0-C ,  3-H ) :   0.9719 
B(  0-C ,  4-C ) :   1.0030 B(  4-C ,  5-H ) :   0.9684 B(  4-C ,  6-H ) :   0.9649 
B(  4-C ,  7-O ) :   0.8518 B(  7-O ,  8-C ) :   1.2267 B(  8-C ,  9-O ) :   2.0188 
B(  8-C , 10-C ) :   0.9498 B( 10-C , 11-F ) :   1.1509 B( 10-C , 12-F ) :   1.1397 
B( 10-C , 13-F ) :   1.1332 

-------
TIMINGS
-------

Total SCF time: 0 days 0 hours 0 min 34 sec 

Total time                  ....      34.170 sec
Sum of individual times     ....      34.109 sec  ( 99.8%)

SCF preparation             ....       0.259 sec  (  0.8%)
Fock matrix formation       ....      33.211 sec  ( 97.2%)
  Startup                   ....       0.057 sec  (  0.2% of F)
  Split-RI-J                ....       1.457 sec  (  4.4% of F)
  Chain of spheres X        ....      27.727 sec  ( 83.5% of F)
  XC integration            ....       3.730 sec  ( 11.2% of F)
    Basis function eval.    ....       0.929 sec  ( 24.9% of XC)
    Density eval.           ....       0.739 sec  ( 19.8% of XC)
    XC-Functional eval.     ....       0.304 sec  (  8.2% of XC)
    XC-Potential eval.      ....       1.340 sec  ( 35.9% of XC)
Diagonalization             ....       0.000 sec  (  0.0%)
Density matrix formation    ....       0.065 sec  (  0.2%)
Total Energy calculation    ....       0.033 sec  (  0.1%)
Population analysis         ....       0.026 sec  (  0.1%)
Orbital Transformation      ....       0.062 sec  (  0.2%)
Orbital Orthonormalization  ....       0.000 sec  (  0.0%)
DIIS solution               ....       0.258 sec  (  0.8%)
SOSCF solution              ....       0.194 sec  (  0.6%)
Finished LeanSCF after  34.2 sec

Maximum memory used throughout the entire LEANSCF-calculation: 30.1 MB


-------------------------------------------------------------------------------
                          DFT DISPERSION CORRECTION                            
                                                                               
                              DFTD3 V3.1  Rev 1                                
                              USING zero damping                               
-------------------------------------------------------------------------------
The omegaB97X-D3 functional is recognized. Fit by Chai et al.
Active option DFTDOPT                   ...         3   

molecular C6(AA) [au] = 1682.557579 


            DFT-D V3
 parameters
 s6 scaling factor         :     1.0000 
 rs6 scaling factor        :     1.2810 
 s8 scaling factor         :     1.0000 
 rs8 scaling factor        :     1.0940 
 Damping factor alpha6     :    14.0000 
 Damping factor alpha8     :    16.0000 
 ad hoc parameters k1-k3   :    16.0000     1.3333    -4.0000 

 Edisp/kcal,au: -2.005144714948  -0.003195401160 
 E6   /kcal   :  -0.769453550 
 E8   /kcal   :  -1.235691165 
 % E8         :  61.626034049 

-------------------------   ----------------
Dispersion correction           -0.003195401
-------------------------   ----------------


-------------------------   --------------------
FINAL SINGLE POINT ENERGY      -605.523816170483
-------------------------   --------------------



           ************************************************************
           *        Program running with 4 parallel MPI-processes     *
           *              working on a common directory               *
           ************************************************************
------------------------------------------------------------------------------
                         ORCA SCF GRADIENT CALCULATION
------------------------------------------------------------------------------

Nuc. rep. gradient        (SHARK) ... done (  0.0 sec)
HCore & Overlap gradient  (SHARK) ... done (  0.1 sec)
Split-RIJ-J gradient      (SHARK) ... done (  0.8 sec)
COSX-gradient                     ... done ( 14.5 sec)
XC gradient                       ... done (  1.5 sec)
Dispersion correction             ... done (  0.1 sec)

-------------------
DISPERSION GRADIENT
-------------------

   1   C   :    0.000016815    0.000022070   -0.000016372
   2   H   :   -0.000015189    0.000031218   -0.000014396
   3   H   :    0.000022755    0.000032512   -0.000027805
   4   H   :    0.000002263    0.000050559   -0.000005694
   5   C   :    0.000026600    0.000043668    0.000018877
   6   H   :   -0.000103115   -0.000094779   -0.000042760
   7   H   :    0.000037048   -0.000094599    0.000081106
   8   O   :    0.000077787    0.000004507    0.000009402
   9   C   :   -0.000083149   -0.000046956   -0.000020014
  10   O   :    0.000071117   -0.000072618    0.000027774
  11   C   :   -0.000035426    0.000033528    0.000000827
  12   F   :   -0.000049609    0.000098493   -0.000004535
  13   F   :    0.000019420    0.000004059   -0.000095561
  14   F   :    0.000012684   -0.000011664    0.000089149

Difference to translation invariance:
           :   -0.0000000000    0.0000000000   -0.0000000000

Difference to rotation invariance:
           :   -0.0000000000    0.0000000000   -0.0000000000

Norm of the Dispersion gradient    ...    0.0003283597
RMS gradient                       ...    0.0000506670
MAX gradient                       ...    0.0001031146

------------------
CARTESIAN GRADIENT
------------------

   1   C   :    0.008667109   -0.002966163    0.001926863
   2   H   :   -0.002539384   -0.000918214    0.000179053
   3   H   :   -0.000730574    0.000858597   -0.002283327
   4   H   :   -0.001392029    0.002465226    0.001304260
   5   C   :   -0.005695444   -0.003141899   -0.001561449
   6   H   :    0.000106151    0.001779245    0.002469833
   7   H   :    0.001355216   -0.000291413   -0.002117266
   8   O   :   -0.006467101    0.004478604    0.000615955
   9   C   :    0.009471399   -0.002663909   -0.001519286
  10   O   :    0.000991175    0.003794129    0.000560997
  11   C   :    0.007483066    0.006394424   -0.000630475
  12   F   :   -0.001599154   -0.003082000   -0.000026126
  13   F   :   -0.004930406   -0.003349946    0.001705097
  14   F   :   -0.004720023   -0.003356681   -0.000624129

Difference to translation invariance:
           :   -0.0000000000   -0.0000000000    0.0000000000

Difference to rotation invariance:
           :   -0.0000868114    0.0004158723    0.0001579057

Norm of the Cartesian gradient     ...    0.0230295779
RMS gradient                       ...    0.0035535410
MAX gradient                       ...    0.0094713990

-------
TIMINGS
-------

Total SCF gradient time     ....       16.953 sec

Densities                   ....       0.001 sec  (  0.0%)
One electron gradient       ....       0.113 sec  (  0.7%)
RI-J Coulomb gradient       ....       0.779 sec  (  4.6%)
COSX gradient               ....      14.526 sec  ( 85.7%)
XC gradient                 ....       1.452 sec  (  8.6%)

Maximum memory used throughout the entire SCFGRAD-calculation: 37.5 MB
------------------------------------------------------------------------------
                         ORCA GEOMETRY RELAXATION STEP
------------------------------------------------------------------------------

Reading the OPT-File                    .... done
Getting information on internals        .... done
Copying old internal coords+grads       .... done
Making the new internal coordinates     .... (2022 redundants) done
Validating the new internal coordinates .... (2022 redundants) done
Calculating the B-matrix                .... done
Calculating the G,G- and P matrices     .... done
Transforming gradient to internals      .... done
Projecting the internal gradient        .... done
Number of atoms                         ....  14
Number of internal coordinates          ....  51
Current Energy                          ....  -605.523816170 Eh
Current gradient norm                   ....     0.023029578 Eh/bohr
Maximum allowed component of the step   ....  0.300
Current trust radius                    ....  0.300
Evaluating the initial hessian          ....  (Almloef) done
Projecting the Hessian                  .... done
Forming the augmented Hessian           .... done
Diagonalizing the augmented Hessian     .... done
Last element of RFO vector              ....  0.996006230
Lowest eigenvalues of augmented Hessian:
 -0.001126869  0.008503880  0.012327894  0.017144997  0.019827505
Length of the computed step             ....  0.089641774
The final length of the internal step   ....  0.089641774
Converting the step to Cartesian space:
 Initial RMS(Int)=    0.0125523591
Transforming coordinates:
 Iter   0:  RMS(Cart)=    0.0342057426 RMS(Int)=    0.8780500191
done
Storing new coordinates                 .... done

                                .--------------------.
          ----------------------|Geometry convergence|-------------------------
          Item                value                   Tolerance       Converged
          ---------------------------------------------------------------------
          RMS gradient        0.0029204470            0.0001000000      NO
          MAX gradient        0.0075914692            0.0003000000      NO
          RMS step            0.0125523591            0.0020000000      NO
          MAX step            0.0370367989            0.0040000000      NO
          ........................................................
          Max(Bonds)      0.0080      Max(Angles)    1.12
          Max(Dihed)        2.12      Max(Improp)    0.00
          ---------------------------------------------------------------------

The optimization has not yet converged - more geometry cycles are needed


    ---------------------------------------------------------------------------
                         Redundant Internal Coordinates
                            (Angstroem and degrees)

        Definition                    Value    dE/dq     Step     New-Value
    ----------------------------------------------------------------------------
     1. B(H   1,C   0)                1.0860 -0.002690  0.0039    1.0899   
     2. B(H   2,C   0)                1.0866 -0.002327  0.0034    1.0900   
     3. B(H   3,C   0)                1.0861 -0.002705  0.0039    1.0900   
     4. B(C   4,C   0)                1.5155  0.003531 -0.0047    1.5108   
     5. B(H   5,C   4)                1.0944  0.002924 -0.0044    1.0901   
     6. B(H   6,C   4)                1.0946  0.002026 -0.0030    1.0916   
     7. B(O   7,C   4)                1.4401 -0.001245  0.0014    1.4415   
     8. B(C   8,O   7)                1.3086 -0.006804  0.0048    1.3134   
     9. B(O   9,C   8)                1.1956  0.003765 -0.0017    1.1939   
    10. B(C  10,C   8)                1.5606  0.005047 -0.0080    1.5527   
    11. B(F  11,C  10)                1.3344  0.002655 -0.0022    1.3322   
    12. B(F  12,C  10)                1.3356  0.003332 -0.0028    1.3328   
    13. B(F  13,C  10)                1.3371  0.002779 -0.0023    1.3347   
    14. A(H   1,C   0,H   3)          109.15  0.001106   -0.26    108.89   
    15. A(H   1,C   0,H   2)          109.06  0.000794   -0.23    108.83   
    16. A(H   2,C   0,H   3)          108.67  0.000804   -0.01    108.65   
    17. A(H   2,C   0,C   4)          110.35 -0.000988    0.20    110.56   
    18. A(H   1,C   0,C   4)          109.44  0.000339   -0.11    109.32   
    19. A(H   3,C   0,C   4)          110.15 -0.002005    0.40    110.55   
    20. A(C   0,C   4,H   5)          112.01 -0.001288    0.31    112.32   
    21. A(H   6,C   4,O   7)          107.84  0.000569   -0.18    107.66   
    22. A(C   0,C   4,O   7)          108.24  0.002096   -0.34    107.90   
    23. A(H   5,C   4,H   6)          108.67  0.001106   -0.20    108.47   
    24. A(C   0,C   4,H   6)          111.41 -0.001304    0.25    111.66   
    25. A(H   5,C   4,O   7)          108.56 -0.001125    0.14    108.70   
    26. A(C   4,O   7,C   8)          117.46  0.002499   -0.34    117.12   
    27. A(O   7,C   8,C  10)          110.14 -0.005766    0.79    110.93   
    28. A(O   7,C   8,O   9)          127.96  0.001574   -0.21    127.75   
    29. A(O   9,C   8,C  10)          121.90  0.004192   -0.59    121.31   
    30. A(F  12,C  10,F  13)          107.58 -0.005418    0.59    108.16   
    31. A(F  11,C  10,F  13)          107.37 -0.005390    0.82    108.20   
    32. A(C   8,C  10,F  13)          110.62  0.007086   -1.06    109.55   
    33. A(F  11,C  10,F  12)          107.45 -0.004945    0.78    108.23   
    34. A(C   8,C  10,F  12)          110.89  0.007591   -1.12    109.76   
    35. A(C   8,C  10,F  11)          112.72  0.000108    0.12    112.84   
    36. D(H   5,C   4,C   0,H   1)    -61.78  0.000144   -0.09    -61.87   
    37. D(H   5,C   4,C   0,H   2)     58.24  0.000725   -0.32     57.92   
    38. D(H   6,C   4,C   0,H   2)   -179.81  0.000295   -0.18   -179.99   
    39. D(H   6,C   4,C   0,H   3)    -59.82 -0.000618    0.19    -59.63   
    40. D(H   6,C   4,C   0,H   1)     60.18 -0.000285    0.05     60.22   
    41. D(H   5,C   4,C   0,H   3)    178.22 -0.000189    0.05    178.27   
    42. D(C   8,O   7,C   4,C   0)    157.80 -0.000957    2.12    159.92   
    43. D(C   8,O   7,C   4,H   6)    -81.56 -0.000999    2.12    -79.43   
    44. D(C   8,O   7,C   4,H   5)     36.01  0.000017    1.86     37.87   
    45. D(C  10,C   8,O   7,C   4)   -179.76  0.000525   -0.78   -180.54   
    46. D(O   9,C   8,O   7,C   4)      0.26 -0.000614    0.89      1.15   
    47. D(F  12,C  10,C   8,O   7)    125.44 -0.001415    1.44    126.88   
    48. D(F  11,C  10,C   8,O   9)   -175.09  0.000525   -0.40   -175.49   
    49. D(F  12,C  10,C   8,O   9)    -54.58 -0.000358   -0.11    -54.69   
    50. D(F  11,C  10,C   8,O   7)      4.93 -0.000532    1.15      6.08   
    51. D(F  13,C  10,C   8,O   7)   -115.29  0.001304    0.76   -114.53   
    ----------------------------------------------------------------------------

Geometry step timings:
Preparation and reading OPT file:      0.000 s ( 4.908 %)
Internal coordinates            :      0.000 s ( 1.150 %)
B/P matrices and projection     :      0.001 s (12.936 %)
Hessian update/contruction      :      0.002 s (48.131 %)
Making the step                 :      0.000 s ( 9.384 %)
Converting the step to Cartesian:      0.000 s ( 1.930 %)
Storing new data                :      0.000 s ( 1.581 %)
Checking convergence            :      0.000 s ( 0.123 %)
Final printing                  :      0.001 s (19.692 %)
Total time                      :      0.005 s

Time for energy+gradient        :     53.937 s
Time for complete geometry iter :     54.387 s

         *************************************************************
         *                GEOMETRY OPTIMIZATION CYCLE   2            *
         *************************************************************
---------------------------------
CARTESIAN COORDINATES (ANGSTROEM)
---------------------------------
  C      2.712348    0.713451    0.086310
  H      3.679513    1.206477   -0.010417
  H      2.603599    0.349517    1.107935
  H      2.681202   -0.138801   -0.592555
  C      1.614491    1.696638   -0.246273
  H      1.600246    2.547308    0.435226
  H      1.706212    2.072791   -1.266877
  O      0.354271    1.003831   -0.147096
  C     -0.723326    1.739546    0.003066
  O     -0.794566    2.930379    0.050150
  C     -1.994692    0.851583    0.080145
  F     -1.714937   -0.450581    0.108596
  F     -2.688956    1.153010    1.177209
  F     -2.769670    1.088282   -0.980478

----------------------------
CARTESIAN COORDINATES (A.U.)
----------------------------
  NO LB      ZA    FRAG     MASS         X           Y           Z
   0 C     6.0000    0    12.011    5.125595    1.348227    0.163103
   1 H     1.0000    0     1.008    6.953272    2.279912   -0.019685
   2 H     1.0000    0     1.008    4.920089    0.660492    2.093694
   3 H     1.0000    0     1.008    5.066738   -0.262297   -1.119766
   4 C     6.0000    0    12.011    3.050945    3.206182   -0.465389
   5 H     1.0000    0     1.008    3.024026    4.813714    0.822458
   6 H     1.0000    0     1.008    3.224274    3.917007   -2.394051
   7 O     8.0000    0    15.999    0.669476    1.896965   -0.277970
   8 C     6.0000    0    12.011   -1.366888    3.287266    0.005793
   9 O     8.0000    0    15.999   -1.501512    5.537615    0.094769
  10 C     6.0000    0    12.011   -3.769422    1.609258    0.151453
  11 F     9.0000    0    18.998   -3.240761   -0.851475    0.205217
  12 F     9.0000    0    18.998   -5.081391    2.178873    2.224603
  13 F     9.0000    0    18.998   -5.233917    2.056555   -1.852836

--------------------------------
INTERNAL COORDINATES (ANGSTROEM)
--------------------------------
 C      0   0   0     0.000000000000     0.00000000     0.00000000
 H      1   0   0     1.089880963766     0.00000000     0.00000000
 H      1   2   0     1.089950177946   108.83065812     0.00000000
 H      1   2   3     1.090028161766   108.89118744   241.71440484
 C      1   2   3     1.510814503389   109.32486224   120.84524485
 H      5   1   2     1.090083726411   112.31575666   298.12998312
 H      5   1   2     1.091574793471   111.65488112    60.22476113
 O      5   1   2     1.441517135243   107.90040511   178.34287545
 C      8   5   1     1.313408304209   117.12408497   159.91502801
 O      9   8   5     1.193890899280   127.74796032     1.14845499
 C      9   8   5     1.552672795433   110.92444602   179.46343284
 F     11   9   8     1.332179700862   112.83736501     6.07356929
 F     11   9   8     1.332820422087   109.75802832   126.86974881
 F     11   9   8     1.334743442464   109.54575023   245.47470235

---------------------------
INTERNAL COORDINATES (A.U.)
---------------------------
 C      0   0   0     0.000000000000     0.00000000     0.00000000
 H      1   0   0     2.059576540092     0.00000000     0.00000000
 H      1   2   0     2.059707335937   108.83065812     0.00000000
 H      1   2   3     2.059854703999   108.89118744   241.71440484
 C      1   2   3     2.855025650562   109.32486224   120.84524485
 H      5   1   2     2.059959705962   112.31575666   298.12998312
 H      5   1   2     2.062777414352   111.65488112    60.22476113
 O      5   1   2     2.724072602965   107.90040511   178.34287545
 C      8   5   1     2.481981996972   117.12408497   159.91502801
 O      9   8   5     2.256126833421   127.74796032     1.14845499
 C      9   8   5     2.934126358958   110.92444602   179.46343284
 F     11   9   8     2.517454795799   112.83736501     6.07356929
[...]
      dyz     :     0.005666
      dx2y2   :     0.000915
      dxy     :     0.001000
      f0      :     0.000189  f :     0.000761
      f+1     :     0.000091
      f-1     :     0.000286
      f+2     :     0.000090
      f-2     :     0.000085
      f+3     :     0.000012
      f-3     :     0.000009



                     *******************************
                     * LOEWDIN POPULATION ANALYSIS *
                     *******************************

----------------------
LOEWDIN ATOMIC CHARGES
----------------------
   0 C :   -0.302432
   1 H :    0.129533
   2 H :    0.126068
   3 H :    0.126016
   4 C :   -0.288290
   5 H :    0.132240
   6 H :    0.132066
   7 O :    0.287479
   8 C :   -0.479663
   9 O :    0.151968
  10 C :   -0.668886
  11 F :    0.210513
  12 F :    0.234615
  13 F :    0.208773

-------------------------------
LOEWDIN REDUCED ORBITAL CHARGES
-------------------------------
  0 C s       :     2.830122  s :     2.830122
      pz      :     1.078768  p :     3.194337
      px      :     1.052764
      py      :     1.062805
      dz2     :     0.037208  d :     0.252784
      dxz     :     0.019925
      dyz     :     0.084541
      dx2y2   :     0.050448
      dxy     :     0.060663
      f0      :     0.002526  f :     0.025189
      f+1     :     0.003004
      f-1     :     0.003711
      f+2     :     0.002567
      f-2     :     0.004065
      f+3     :     0.004011
      f-3     :     0.005305

  1 H s       :     0.809425  s :     0.809425
      pz      :     0.013620  p :     0.061042
      px      :     0.029689
      py      :     0.017733

  2 H s       :     0.812490  s :     0.812490
      pz      :     0.027568  p :     0.061442
      px      :     0.012809
      py      :     0.021065

  3 H s       :     0.812513  s :     0.812513
      pz      :     0.028808  p :     0.061471
      px      :     0.013054
      py      :     0.019609

  4 C s       :     2.804440  s :     2.804440
      pz      :     1.070736  p :     2.916201
      px      :     0.833576
      py      :     1.011888
      dz2     :     0.055870  d :     0.500172
      dxz     :     0.073252
      dyz     :     0.123815
      dx2y2   :     0.115544
      dxy     :     0.131691
      f0      :     0.007220  f :     0.067477
      f+1     :     0.006845
      f-1     :     0.005125
      f+2     :     0.006241
      f-2     :     0.009124
      f+3     :     0.017132
      f-3     :     0.015790

  5 H s       :     0.808027  s :     0.808027
      pz      :     0.030568  p :     0.059733
      px      :     0.009257
      py      :     0.019908

  6 H s       :     0.808354  s :     0.808354
      pz      :     0.028928  p :     0.059580
      px      :     0.009001
      py      :     0.021651

  7 O s       :     3.236731  s :     3.236731
      pz      :     1.553535  p :     4.359251
      px      :     1.255953
      py      :     1.549763
      dz2     :     0.011340  d :     0.109556
      dxz     :     0.018214
      dyz     :     0.007760
      dx2y2   :     0.029874
      dxy     :     0.042368
      f0      :     0.000597  f :     0.006982
      f+1     :     0.000874
      f-1     :     0.000313
      f+2     :     0.000137
      f-2     :     0.001151
      f+3     :     0.002344
      f-3     :     0.001566

  8 C s       :     2.756524  s :     2.756524
      pz      :     0.741735  p :     2.642524
      px      :     0.904148
      py      :     0.996640
      dz2     :     0.066817  d :     0.929999
      dxz     :     0.077304
      dyz     :     0.172683
      dx2y2   :     0.222228
      dxy     :     0.390966
      f0      :     0.009864  f :     0.150617
      f+1     :     0.007983
      f-1     :     0.012335
      f+2     :     0.020350
      f-2     :     0.014154
      f+3     :     0.060784
      f-3     :     0.025147

  9 O s       :     3.392883  s :     3.392883
      pz      :     1.284223  p :     4.378574
      px      :     1.600847
      py      :     1.493503
      dz2     :     0.008402  d :     0.069994
      dxz     :     0.000236
      dyz     :     0.016177
      dx2y2   :     0.026438
      dxy     :     0.018741
      f0      :     0.000508  f :     0.006581
      f+1     :     0.000113
      f-1     :     0.001005
      f+2     :     0.000976
      f-2     :     0.000079
      f+3     :     0.001957
      f-3     :     0.001944

 10 C s       :     2.759346  s :     2.759346
      pz      :     0.769886  p :     2.502797
      px      :     0.900246
      py      :     0.832665
      dz2     :     0.259462  d :     1.145765
      dxz     :     0.181743
      dyz     :     0.268500
      dx2y2   :     0.179591
      dxy     :     0.256468
      f0      :     0.044553  f :     0.260978
      f+1     :     0.033451
      f-1     :     0.044678
      f+2     :     0.036533
      f-2     :     0.042823
      f+3     :     0.033715
      f-3     :     0.025224

 11 F s       :     3.596188  s :     3.596188
      pz      :     1.672399  p :     5.160768
      px      :     1.817600
      py      :     1.670768
      dz2     :     0.005465  d :     0.030892
      dxz     :     0.003183
      dyz     :     0.013687
      dx2y2   :     0.004835
      dxy     :     0.003722
      f0      :     0.000219  f :     0.001639
      f+1     :     0.000056
      f-1     :     0.000470
      f+2     :     0.000400
      f-2     :     0.000272
      f+3     :     0.000127
      f-3     :     0.000095

 12 F s       :     3.586327  s :     3.586327
      pz      :     1.799438  p :     5.145505
      px      :     1.612241
      py      :     1.733827
      dz2     :     0.004456  d :     0.031830
      dxz     :     0.004174
      dyz     :     0.002459
      dx2y2   :     0.008193
      dxy     :     0.012548
      f0      :     0.000149  f :     0.001722
      f+1     :     0.000224
      f-1     :     0.000112
      f+2     :     0.000053
      f-2     :     0.000261
      f+3     :     0.000434
      f-3     :     0.000489

 13 F s       :     3.597256  s :     3.597256
      pz      :     1.596186  p :     5.161590
      px      :     1.813708
      py      :     1.751696
      dz2     :     0.011063  d :     0.030756
      dxz     :     0.005129
      dyz     :     0.011148
      dx2y2   :     0.001430
      dxy     :     0.001985
      f0      :     0.000419  f :     0.001626
      f+1     :     0.000204
      f-1     :     0.000560
      f+2     :     0.000177
      f-2     :     0.000219
      f+3     :     0.000033
      f-3     :     0.000015



                      *****************************
                      * MAYER POPULATION ANALYSIS *
                      *****************************

  NA   - Mulliken gross atomic population
  ZA   - Total nuclear charge
  QA   - Mulliken gross atomic charge
  VA   - Mayer's total valence
  BVA  - Mayer's bonded valence
  FA   - Mayer's free valence

  ATOM       NA         ZA         QA         VA         BVA        FA
  0 C      6.3283     6.0000    -0.3283     3.9211     3.9211     0.0000
  1 H      0.8758     1.0000     0.1242     0.9733     0.9733     0.0000
  2 H      0.8718     1.0000     0.1282     0.9733     0.9733     0.0000
  3 H      0.8717     1.0000     0.1283     0.9732     0.9732     0.0000
  4 C      6.0630     6.0000    -0.0630     3.8554     3.8554     0.0000
  5 H      0.8711     1.0000     0.1289     0.9647     0.9647     0.0000
  6 H      0.8723     1.0000     0.1277     0.9644     0.9644     0.0000
  7 O      8.2408     8.0000    -0.2408     2.1642     2.1642     0.0000
  8 C      5.7266     6.0000     0.2734     4.2454     4.2454    -0.0000
  9 O      8.3052     8.0000    -0.3052     2.1872     2.1872     0.0000
 10 C      5.5112     6.0000     0.4888     4.4545     4.4545     0.0000
 11 F      9.1584     9.0000    -0.1584     1.1480     1.1480     0.0000
 12 F      9.1441     9.0000    -0.1441     1.1766     1.1766    -0.0000
 13 F      9.1596     9.0000    -0.1596     1.1452     1.1452    -0.0000

  Mayer bond orders larger than 0.100000
B(  0-C ,  1-H ) :   0.9698 B(  0-C ,  2-H ) :   0.9714 B(  0-C ,  3-H ) :   0.9715 
B(  0-C ,  4-C ) :   1.0048 B(  4-C ,  5-H ) :   0.9671 B(  4-C ,  6-H ) :   0.9670 
B(  4-C ,  7-O ) :   0.8536 B(  7-O ,  8-C ) :   1.2274 B(  8-C ,  9-O ) :   2.0204 
B(  8-C , 10-C ) :   0.9506 B( 10-C , 11-F ) :   1.1354 B( 10-C , 12-F ) :   1.1734 
B( 10-C , 13-F ) :   1.1290 

-------
TIMINGS
-------

Total SCF time: 0 days 0 hours 0 min 27 sec 

Total time                  ....      27.464 sec
Sum of individual times     ....      27.395 sec  ( 99.7%)

SCF preparation             ....       0.326 sec  (  1.2%)
Fock matrix formation       ....      26.680 sec  ( 97.1%)
  Startup                   ....       0.047 sec  (  0.2% of F)
  Split-RI-J                ....       0.802 sec  (  3.0% of F)
  Chain of spheres X        ....      23.880 sec  ( 89.5% of F)
  XC integration            ....       1.894 sec  (  7.1% of F)
    Basis function eval.    ....       0.525 sec  ( 27.7% of XC)
    Density eval.           ....       0.416 sec  ( 22.0% of XC)
    XC-Functional eval.     ....       0.117 sec  (  6.2% of XC)
    XC-Potential eval.      ....       0.646 sec  ( 34.1% of XC)
Diagonalization             ....       0.000 sec  (  0.0%)
Density matrix formation    ....       0.038 sec  (  0.1%)
Total Energy calculation    ....       0.021 sec  (  0.1%)
Population analysis         ....       0.094 sec  (  0.3%)
Orbital Transformation      ....       0.037 sec  (  0.1%)
Orbital Orthonormalization  ....       0.000 sec  (  0.0%)
DIIS solution               ....       0.044 sec  (  0.2%)
SOSCF solution              ....       0.155 sec  (  0.6%)
Finished LeanSCF after  27.5 sec

Maximum memory used throughout the entire LEANSCF-calculation: 31.9 MB


-------------------------------------------------------------------------------
                          DFT DISPERSION CORRECTION                            
                                                                               
                              DFTD3 V3.1  Rev 1                                
                              USING zero damping                               
-------------------------------------------------------------------------------
The omegaB97X-D3 functional is recognized. Fit by Chai et al.
Active option DFTDOPT                   ...         3   

molecular C6(AA) [au] = 1682.023922 


            DFT-D V3
 parameters
 s6 scaling factor         :     1.0000 
 rs6 scaling factor        :     1.2810 
 s8 scaling factor         :     1.0000 
 rs8 scaling factor        :     1.0940 
 Damping factor alpha6     :    14.0000 
 Damping factor alpha8     :    16.0000 
 ad hoc parameters k1-k3   :    16.0000     1.3333    -4.0000 

 Edisp/kcal,au: -2.014206514420  -0.003209842055 
 E6   /kcal   :  -0.752784294 
 E8   /kcal   :  -1.261422220 
 % E8         :  62.626260582 

-------------------------   ----------------
Dispersion correction           -0.003209842
-------------------------   ----------------


-------------------------   --------------------
FINAL SINGLE POINT ENERGY      -605.526072511174
-------------------------   --------------------

                                *** OPTIMIZATION RUN DONE ***



           ************************************************************
           *        Program running with 4 parallel MPI-processes     *
           *              working on a common directory               *
           ************************************************************

------------------------------------------------------------------------------
                              ORCA PROPERTY CALCULATIONS
------------------------------------------------------------------------------

GBWName                                 ... opt.gbw
Number of atoms                         ...     14
Number of basis functions               ...    309
Max core memory                         ...   1024 MB

Electric properties:
Dipole moment                           ... YES
Quadrupole moment                       ...  NO
Static polarizability (Dipole/Dipole)   ...  NO
Static polarizability (Dipole/Quad.)    ...  NO
Static polarizability (Quad./Quad.)     ...  NO
Static polarizability (Velocity)        ...  NO

Atomic electric properties:
Dipole moment                           ...  NO
Quadrupole moment                       ...  NO
Static polarizability                   ...  NO

Choice of electric origin               ... Center of mass
Position of electric origin             ...    -1.473610     2.169321     0.083978

General magnetic properties:
Magnetizability                         ...  NO

EPR properties:
g-Tensor (aka g-matrix)                 ...  NO
Zero-Field splitting spin-orbit         ...  NO
Zero-field splitting spin-spin          ...  NO
Hyperfine couplings                     ...  NO (   0 nuclei)
Quadrupole couplings                    ...  NO (   0 nuclei)
Contact density                         ...  NO (   0 nuclei)

NMR properties:
Chemical shifts                         ...  NO (   0 nuclei)
Spin-rotation constants                 ...  NO (   0 nuclei)
Spin-spin couplings                     ...  NO (   0 nuclei,    0 pairs)

Choice of magnetic origin               ... GIAO
Position of magnetic origin             ...     0.000000     0.000000     0.000000

Properties with geometric perturbations:
SCF Hessian                             ...  NO
IR spectrum                             ...  NO
VCD spectrum                            ...  NO
X-ray spectroscopy properties:
SCF XES/XAS/RIXS spectra                ...  NO


-------------
DIPOLE MOMENT
-------------

Method             : SCF
Type of density    : Electron Density
Multiplicity       :   1
Irrep              :   0
Energy             :  -605.5228626691189220 Eh
Relativity type    : 
Basis              : AO
                                X                 Y                 Z
Electronic contribution:    -18.300227251      -2.087260980       0.784489615
Nuclear contribution   :     19.573122213       1.861246739      -0.859319080
                        -----------------------------------------
Total Dipole Moment    :      1.272894962      -0.226014240      -0.074829466
                        -----------------------------------------
Magnitude (a.u.)       :      1.294968521
Magnitude (Debye)      :      3.291548396



--------------------
Rotational spectrum 
--------------------
 
Rotational constants in cm-1:             0.103599             0.032596             0.028834 
Rotational constants in MHz :          3105.823699           977.195472           864.408930 

Dipole components along the rotational axes: 
x,y,z [a.u.] :     1.253146    -0.326438    -0.002447 
x,y,z [Debye]:     3.185245    -0.829740    -0.006220 

 

Dipole moment calculation done in   0.0 sec 

Maximum memory used throughout the entire PROP-calculation: 18.0 MB

--------------------------------
SUGGESTED CITATIONS FOR THIS RUN
--------------------------------

Below you find a list of papers that are relevant to this ORCA run
We neither can nor want to force you to cite these papers, but we appreciate if you do
You receive ORCA, which is the product of decades of hard work by many enthusiastic individuals, for free
The only thing we kindly ask in return is that you cite our papers,
We deeply appreciate it, if you show your appreciation for ORCA by not just citing the generic ORCA reference.

Please note that relegating all ORCA citations to the supporting information does *not* help us.
SI sections are not indexed - citations you put there will not count into any citation statistics
But we need these citations in order to attract the funding resources that allow us to do what we are doing

Therefore, if you are a happy ORCA user, please consider citing a few of the papers listed below in the main body of your paper

In addition to the list printed below, the program has created the file opt.bibtex that contains the list in bibtex format
You can import this file easily into all common literature databanks and citation aid programs


List of essential papers. We consider these as the minimum necessary citations

  1. Neese,F.
     Software update: the ORCA program system, version 5.0
     WIRES Comput. Molec. Sci., 2022 12(1)e1606
     doi.org/10.1002/wcms.1606

List of papers to cite with high priority. The work reported in these papers was absolutely
necessary for this run to complete.
Our perspective: the developers of density functionals and basis sets usually get cited in chemistry papers
Good! But without the algorithms to do something with them, the functionals or basis sets would not do anything.
Hence, in our opinion, the algorithm design and method developments papers are equally worthy of getting cited

  1. Neese,F.
     An improvement of the resolution of the identity approximation for the formation of the Coulomb matrix
     J. Comp. Chem., 2003 24(14)1740-1747
     doi.org/10.1002/jcc.10318
  2. Neese,F.; Wennmohs,F.; Hansen,A.; Becker,U.
     Efficient, approximate and parallel Hartree-Fock and hybrid DFT calculations. A 'chain-of-spheres' algorithm for the Hartree-Fock exchange
     Chem. Phys., 2009 356(1-3)98-109
     doi.org/10.1016/j.chemphys.2008.10.036
  3. Helmich-Paris,B.; de Souza,B.; Neese,F.; Izsák,R.
     An improved chain of spheres for exchange algorithm
     J. Chem. Phys., 2021 155 104109
     doi.org/doi: 10.1063/5.0058766.
  4. Neese,F.
     The SHARK Integral Generation and Digestion System
     J. Comp. Chem., 2022  1-16
     doi.org/10.1002/jcc.26942
  5. Grimme,S.; Antony,J.; Ehrlich,S.; Krieg,H.
     A consistent and accurate ab initio parametrization of density functional dispersion correction (DFT-D) for the 94 elements H-Pu
     J. Chem. Phys., 2010 132 154104
     doi.org/10.1063/1.3382344

List of suggested additional citations. These are papers that are important in the 'surrounding' of 
of this run, or papers that preceded the highly important papers. If you like your results we are grateful for a citation.

  1. Izsak,R.; Neese,F.
     An overlap fitted chain of spheres exchange method
     J. Chem. Phys., 2011 135 144105
     doi.org/10.1063/1.3646921
  2. Izsak,R.; Hansen,A.; Neese,F.
     The resolution of identity and chain of spheres approximations for the LPNO-CCSD singles Fock term
     Molec. Phys., 2012 110 2413-2417
     doi.org/10.1080/00268976.2012.687466
  3. Neese,F.
     The ORCA program system
     WIRES Comput. Molec. Sci., 2012 2(1)73-78
     doi.org/10.1002/wcms.81
  4. Izsak,R.; Neese,F.; Klopper,W.
     Robust fitting techniques in the chain of spheres approximation to the Fock exchange: The role of the complementary space
     J. Chem. Phys., 2013 139 
     doi.org/10.1063/1.4819264
  5. Neese,F.
     Software update: the ORCA program system, version 4.0
     WIRES Comput. Molec. Sci., 2018 8(1)1-6
     doi.org/10.1002/wcms.1327
  6. Neese,F.; Wennmohs,F.; Becker,U.; Riplinger,C.
     The ORCA quantum chemistry program package
     J. Chem. Phys., 2020 152 Art. No. L224108
     doi.org/10.1063/5.0004608

List of optional additional citations

  1. Neese,F.
     Approximate second-order SCF convergence for spin unrestricted wavefunctions
     Chem. Phys. Lett., 2000 325(1-3)93-98
     doi.org/10.1016/s0009-2614(00)00662-x

Timings for individual modules:

Sum of individual times          ...     1095.067 sec (=  18.251 min)
Startup calculation              ...       30.175 sec (=   0.503 min)   2.8 %
SCF iterations                   ...      690.459 sec (=  11.508 min)  63.1 %
Property calculations            ...        0.432 sec (=   0.007 min)   0.0 %
SCF Gradient evaluation          ...      373.773 sec (=   6.230 min)  34.1 %
Geometry relaxation              ...        0.228 sec (=   0.004 min)   0.0 %
                             ****ORCA TERMINATED NORMALLY****
TOTAL RUN TIME: 0 days 0 hours 18 minutes 23 seconds 11 msec
